LAMMPS data file via write_data, version 2 Aug 2023, timestep = 10000, units = real

6000 atoms
2 atom types
4000 bonds
1 bond types
2000 angles
1 angle types

-0.579000004 30.583000183 xlo xhi
-0.544 50.576000214 ylo yhi
-0.534000002 38.566001892 zlo zhi

Masses

1 15.9994
2 1.00797

Pair Coeffs # lj/cut/coul/long

1 0.155416 3.16552
2 0 0

Bond Coeffs # harmonic

1 540.634 1

Angle Coeffs # harmonic

1 50 109.47

Atoms # full

709 237 1 -0.82 4.965562470884133 1.5768336021667964 4.147015329383912 0 0 0
711 237 2 0.41 4.023840906138827 1.913225275967995 4.145939955939729 0 0 0
1144 382 1 -0.82 0.015134463610851157 5.422703444645182 6.949220106275612 0 0 0
1145 382 2 0.41 0.6327924331689821 5.242158291213754 7.714662593040576 0 0 0
1146 382 2 0.41 0.489418170843128 5.970906492594516 6.260359844023864 0 0 0
4312 1438 1 -0.82 0.900136300940406 7.32671766509058 1.0986282930826163 0 0 0
4659 1553 2 0.41 1.5117877996645435 1.1004062100007952 3.739311401055145 0 0 0
4807 1603 1 -0.82 1.133642926886839 4.441480980786172 9.128262754521764 0 0 0
4808 1603 2 0.41 1.2701776411183816 3.4788163864659576 8.89452042298462 0 0 0
710 237 2 0.41 4.975969965196556 0.6142548485371695 3.8762130860602624 0 0 0
5554 1852 1 -0.82 3.7280426802942372 5.593588667304774 1.8269337217955544 0 0 0
5555 1852 2 0.41 3.6103469254148415 6.582874374402948 1.9133141093869908 0 0 0
5556 1852 2 0.41 3.4033584831768726 5.145316973628569 2.659779859241977 0 0 0
4314 1438 2 0.41 1.8547711497863844 7.347623752084207 1.3956730133187645 0 0 0
4657 1553 1 -0.82 2.1049844519543615 1.5506356969403339 4.406702770361448 0 0 0
3192 1064 2 0.41 1.3025116425405574 4.794015644341983 3.3391136132882204 1 0 0
4658 1553 2 0.41 1.9271758065410487 1.176220031488154 5.31675606911354 0 0 0
2220 740 2 0.41 4.4554937666394165 6.683679110386204 6.2433390197440675 0 0 0
2218 740 1 -0.82 4.210766400271737 7.559471834847116 6.659387378486492 0 0 0
3190 1064 1 -0.82 0.5665530574702446 4.990609492117805 2.6912579247526254 1 0 0
1114 372 1 -0.82 6.33960128994162 0.7657642475376114 6.366233221985795 0 0 0
2797 933 1 -0.82 6.877199246200102 4.4259065419624175 1.5532812486319225 0 0 0
2551 851 1 -0.82 1.2894071370623794 7.302542829523352 5.508173897452579 0 0 0
2553 851 2 0.41 1.206235423000127 7.878236651261364 4.694749164796925 0 0 0
2552 851 2 0.41 1.8059810739656066 7.79143040399191 6.211125460666557 0 0 0
2799 933 2 0.41 5.928810765884803 4.733781615352074 1.629256692088846 0 0 0
2219 740 2 0.41 3.635355218432912 7.3983507231184324 7.461224101084273 0 0 0
4080 1360 2 0.41 2.155767946460818 1.2625480950980332 8.707699845917313 0 0 0
5358 1786 2 0.41 4.19742487128385 8.60120025937986 1.302415765742827 0 0 0
1232 411 2 0.41 4.7928210520130605 2.3192442413297147 1.8712583737043529 0 0 0
1231 411 1 -0.82 4.491555408027333 1.8978249540269843 1.0158958027034377 0 0 0
982 328 1 -0.82 5.529284947685375 5.367344007590954 5.7033604888901435 0 0 0
984 328 2 0.41 6.523790755221487 5.471765153030342 5.710789870151455 0 0 0
983 328 2 0.41 5.2269485643027895 5.120286209636965 4.782732838293641 0 0 0
1233 411 2 0.41 4.962974347018121 1.0249114077714792 0.8902501025298605 0 0 0
2404 802 1 -0.82 2.6547598260771874 4.222669607968471 4.175091926134326 1 0 0
2405 802 2 0.41 2.632159922547971 3.3114316986109142 3.7638311632277923 1 0 0
2406 802 2 0.41 2.808574967057019 4.140239321568941 5.159747455003942 1 0 0
921 307 2 0.41 3.908694177427315 5.343780894872796 0.1897731377377227 1 0 1
2371 791 1 -0.82 -0.36504996297006836 0.33218600034815393 6.003657681671367 0 0 0
3343 1115 1 -0.82 3.3478294673123488 0.9286557363522118 7.1706461532049515 0 0 0
1116 372 2 0.41 6.201480167985682 1.11025154416676 5.437658130127455 0 0 0
5356 1786 1 -0.82 3.7310329378127274 8.210321580671247 2.0959478060029455 0 0 0
4492 1498 1 -0.82 0.2287350962374362 0.9935546329764 2.779498633507179 1 0 1
4493 1498 2 0.41 -0.4010378989919864 1.7668368874227969 2.7058672277341813 1 0 1
4494 1498 2 0.41 -0.1334078911247431 0.21830433542381816 2.2619663837338755 1 0 1
1276 426 1 -0.82 1.7347974322973896 8.454614232771721 8.090027545161304 0 0 0
1277 426 2 0.41 1.8691522597666756 7.980770954076013 8.960327326334333 0 0 0
4313 1438 2 0.41 0.43989424273506744 6.540496699279964 1.5109805683250745 0 0 0
3345 1115 2 0.41 3.597288501700691 0.1407379872602428 6.60765716341112 0 0 0
3781 1261 1 -0.82 0.46130569632786017 0.019250848951285454 -0.1995044086190018 1 0 1
3191 1064 2 0.41 -0.02690393749723688 4.1900605651883165 2.60800434053117 1 0 0
5330 1777 2 0.41 -0.3678577175874292 0.6756572864293858 8.96802789472525 0 1 0
2191 731 1 -0.82 5.756263862251548 9.39336549133751 5.03279517265642 0 0 0
1499 500 2 0.41 0.848095876847628 8.766429555096718 2.4323601740612775 1 0 0
1500 500 2 0.41 -0.346993557976022 9.506497713868567 3.263436295028854 1 0 0
1278 426 2 0.41 1.6742695227234716 9.439454202131788 8.252591095562815 0 0 0
3344 1115 2 0.41 4.116885726990586 1.5665834360832098 7.210658230348668 0 0 0
347 116 2 0.41 6.453822898255814 2.8885776121025626 8.874556257935364 0 0 0
2016 672 2 0.41 4.090868244346743 4.83192906845696 8.819078958691575 1 0 0
971 324 2 0.41 2.9700507773692286 2.4469691395834285 0.7100621191214767 0 0 1
4466 1489 2 0.41 6.448472283532802 8.767378377933301 0.12965841923139115 0 0 0
4500 1500 2 0.41 7.204793677141344 2.886576330910642 -0.4299790757257364 0 0 0
3782 1261 2 0.41 -0.48882914430667046 -0.2706642613135803 -0.08464247578552414 1 0 1
970 324 1 -0.82 2.134621833161284 2.8718063247335763 0.36138909121950596 0 0 1
2193 731 2 0.41 5.472782263535421 8.711946263741602 5.707559780990034 0 0 0
1498 500 1 -0.82 0.5323544009762541 9.036820681583993 3.341863921468461 1 0 0
972 324 2 0.41 1.3460997760851112 2.308686444217441 0.6086324208174895 0 0 1
5357 1786 2 0.41 3.8806973420754733 8.796090881844759 2.8924874444744266 0 0 0
2192 731 2 0.41 4.983626257220355 9.614755779885705 4.437800445091185 0 0 0
4933 1645 1 -0.82 7.73790049962285 3.7963974905273945 8.024640996841876 1 0 0
4934 1645 2 0.41 7.696074320702979 4.190901586112291 7.106698731565316 1 0 0
4935 1645 2 0.41 8.425881352970988 3.0709430312251156 8.044622703292964 1 0 0
5583 1861 2 0.41 7.469356263205768 8.911859403344671 5.185436683278116 0 0 0
1115 372 2 0.41 7.229561283617302 1.0702234124878227 6.7057566917863145 0 0 0
4669 1557 1 -0.82 8.277539678638105 5.424010370200491 5.7772823527301185 0 0 0
2798 933 2 0.41 7.374791546354434 5.029750865377888 0.9305662304411964 0 0 0
5582 1861 2 0.41 8.456694618396353 8.364966739161144 6.365563313082455 0 0 0
5581 1861 1 -0.82 8.419878924397175 8.844165178644532 5.488628831645417 0 0 0
3018 1006 2 0.41 8.989621019573857 6.769888215579801 0.14352259712393275 0 0 0
250 84 1 -0.82 9.167338378871918 8.259890365512575 3.065493258776359 0 0 0
252 84 2 0.41 8.53191042244521 8.71542791945862 2.4420215391451876 0 0 0
4670 1557 2 0.41 8.493754046260797 6.365509620812269 5.518766303761213 0 0 0
5597 1866 2 0.41 13.898945619266721 2.321671329096475 0.4858269935975703 0 0 0
1295 432 2 0.41 9.326916544742108 0.2669518933002204 4.507227598795066 0 0 0
3193 1065 1 -0.82 8.593786307869287 4.022465469420753 3.632595254540631 0 0 0
3194 1065 2 0.41 9.068670767506994 3.1619584493799033 3.448170249991892 0 0 0
3195 1065 2 0.41 7.865790634916206 4.152329274113329 2.9594252532689898 0 0 0
238 80 1 -0.82 12.795960368112803 3.1540210019949657 8.462258424337197 0 0 0
239 80 2 0.41 12.31603433651143 3.9897295910945254 8.195308532142544 0 0 0
240 80 2 0.41 12.591502115101903 2.428027703616313 7.805653040033159 0 0 0
787 263 1 -0.82 12.551748384198852 5.430260720747093 4.579783574718107 0 0 0
788 263 2 0.41 13.513023229336238 5.232327704022417 4.771548626513193 0 0 0
789 263 2 0.41 12.381416241854314 5.336638466966983 3.5988544268602305 0 0 0
1225 409 1 -0.82 9.409985210686546 1.5668734263533803 7.445129214233002 0 0 0
1226 409 2 0.41 10.234723701093367 1.7142894748180777 6.89916603894143 0 0 0
1227 409 2 0.41 9.520706315021936 0.7425481209787742 8.000312986132473 0 0 0
2526 842 2 0.41 12.428767981289752 8.254470523877963 1.4857052707626877 0 0 0
5596 1866 1 -0.82 13.53057107635984 2.7621443105854384 1.3045356159812134 0 0 0
4671 1557 2 0.41 8.549624142602257 4.8051683320286065 5.040393859238027 0 0 0
2524 842 1 -0.82 12.355432930891862 7.303651305111533 1.1847649854631845 0 0 0
3642 1214 2 0.41 14.379421399905501 4.051359545254885 8.818681399378677 0 0 0
5947 1983 1 -0.82 11.624783709416336 5.511702003306426 7.429609803986564 0 0 0
5598 1866 2 0.41 12.936442088432864 3.5204845593976692 1.0363361416312784 0 0 0
2525 842 2 0.41 11.572735809483405 6.871650844301545 1.632829304910597 0 0 0
3795 1265 2 0.41 10.046609335923252 1.2146023773946886 2.0235441948055044 0 0 0
3794 1265 2 0.41 11.136073842909887 1.4446695089361927 3.218015954169855 0 0 0
4357 1453 1 -0.82 10.50279373165011 1.0565673110422154 0.09169058227031211 0 1 0
2153 718 2 0.41 13.679041432106143 0.1707567416252401 3.9233130087644152 0 0 0
2154 718 2 0.41 13.259633081890199 1.2905154951719893 2.8111692478314496 0 0 0
3793 1265 1 -0.82 10.169293042841842 1.5101931350819686 2.97094890988902 0 0 0
4359 1453 2 0.41 10.984361583219368 1.893809624432715 -0.16738069371283082 0 1 0
5949 1983 2 0.41 11.636223200145304 5.463932716583648 6.430816737855165 0 0 0
5948 1983 2 0.41 12.187305733872178 6.280814613543842 7.732983926214336 0 0 0
2152 718 1 -0.82 12.974354488772843 0.4494914418683467 3.270837785824536 0 0 0
2758 920 1 -0.82 10.234214035642273 6.015383178759594 2.313927881406562 0 0 0
2759 920 2 0.41 9.501494363852995 5.350232002348525 2.457788393979454 0 0 0
2760 920 2 0.41 9.946688534989255 6.9082081168719345 2.6606161822062533 0 0 0
5138 1713 2 0.41 12.788817327944772 1.6714374146168742 5.613004056017849 0 1 0
5139 1713 2 0.41 11.921278311469434 0.5934564539629471 6.480160216203474 0 1 0
5137 1713 1 -0.82 12.047389976750397 1.5641106452795182 6.2753988017199 0 1 0
3016 1006 1 -0.82 8.309594620377625 6.07813024845179 -0.09944894553787831 0 0 0
1630 544 1 -0.82 9.356883743301161 7.570155122317238 7.882373585302627 0 0 0
1631 544 2 0.41 9.558956829543652 6.607632217666075 7.701496740966592 0 0 0
1632 544 2 0.41 9.28829097586684 7.71659952645361 8.869211620902295 0 0 0
5254 1752 1 -0.82 12.542621756433551 8.024209406806722 5.59408045772323 0 0 1
251 84 2 0.41 9.038766241078944 8.61574923154384 3.9911464125994405 0 0 0
5256 1752 2 0.41 12.310118392827404 7.109361090667816 5.263935644727486 0 0 1
189 63 2 0.41 10.237153099421306 9.060598979057865 7.272080854153871 0 0 0
4961 1654 2 0.41 14.218247366103377 7.591589307783498 5.300957419018379 0 0 0
2745 915 2 0.41 13.757705182002406 7.424071499904965 -0.22515884302466457 0 0 1
5255 1752 2 0.41 12.354414189033792 8.695192576448967 4.876891308742948 0 0 1
1294 432 1 -0.82 9.125959342429555 -0.49405342962288046 5.124064254152251 0 0 0
4482 1494 2 0.41 14.714914753291785 0.06744450794120782 8.943325789209725 0 0 0
1282 428 1 -0.82 13.341741190826248 9.598587618529601 7.442667954743008 0 0 0
2824 942 1 -0.82 13.281034700283174 6.947543830857219 9.12252666598344 0 0 0
2825 942 2 0.41 14.164724010797153 7.412051061592338 9.064847475119862 0 0 0
1284 428 2 0.41 13.282245410632319 8.859104836057101 6.772125504759932 0 0 0
947 316 2 0.41 10.78261709305662 4.728824437196396 0.6722928461604685 0 0 1
946 316 1 -0.82 10.86927284779398 3.82658976746926 0.24984340998970328 0 0 1
4465 1489 1 -0.82 7.433805835284599 8.834926980230545 0.28636094332731854 0 0 0
4358 1453 2 0.41 9.663348565786338 0.9750368310639231 -0.4456035702223531 0 1 0
889 297 1 -0.82 18.615175189064093 -0.001382925906997806 2.444208195092185 0 0 0
1370 457 2 0.41 21.88758209940056 0.7847808919439943 2.696934499271158 0 0 1
1371 457 2 0.41 22.355261326279038 0.7010553153149685 4.259270191178123 0 0 1
1157 386 2 0.41 19.160171310271107 0.026691869203363368 9.228210505930798 0 1 0
4173 1391 2 0.41 16.7360785323068 3.4858584087533884 1.6098972397674371 0 0 0
3640 1214 1 -0.82 15.221035543732595 4.483290821515869 9.142906332713702 0 0 0
4171 1391 1 -0.82 16.133305292405485 3.978502156664089 2.237564894880419 0 0 0
4172 1391 2 0.41 15.229053195581491 3.551508719700222 2.235350015538524 0 0 0
490 164 1 -0.82 15.406475454109438 4.809697988531667 5.119935665230286 0 0 0
491 164 2 0.41 15.428786479696221 3.9279979974470582 5.591218361913911 0 0 0
492 164 2 0.41 16.100230711780647 4.82036593233639 4.3998037890625215 0 0 0
3921 1307 2 0.41 16.376922893841737 6.848749198045316 7.754192854945117 0 0 0
3641 1214 2 0.41 15.101251493328842 5.475953178238727 9.159446999636696 0 0 0
3919 1307 1 -0.82 16.013101808369246 7.276649714221279 8.58155982515592 0 0 0
2829 943 2 0.41 21.42123517423683 8.027160683259746 -0.20361297601586253 0 0 0
1229 410 2 0.41 15.834432021143115 5.849514337512928 1.4364281354761606 0 0 1
1230 410 2 0.41 17.23066308768681 6.684379079319504 1.2944183510731355 0 0 1
4448 1483 2 0.41 16.57718437814686 3.1028818597397763 8.907394879351177 0 0 0
4921 1641 1 -0.82 16.090482907159522 9.200951200799047 1.255590414093083 0 0 0
280 94 1 -0.82 17.852244307411944 2.441948145722583 0.6463012589289985 0 1 0
4589 1530 2 0.41 19.41859646587861 7.62145693957456 2.2599981985957247 0 0 1
4922 1641 2 0.41 16.038565909685452 8.277810821422435 0.8746472981519664 0 0 0
1228 410 1 -0.82 16.320344136912432 6.54355290639476 0.9052029184141515 0 0 1
4986 1662 2 0.41 18.01571568522696 1.3453962254984946 7.539807802615297 0 0 0
4962 1654 2 0.41 15.312978528232044 6.379974734796043 5.287529168687807 0 0 0
4960 1654 1 -0.82 15.19354902060417 7.372687741837079 5.271482093867636 0 0 0
4984 1662 1 -0.82 18.62983287510055 0.7175079412747575 7.061668231827212 0 0 0
4985 1662 2 0.41 18.54352369423735 0.8537766500458727 6.074762832180213 0 0 0
539 180 2 0.41 17.998591116614012 7.575157044720717 6.056519773398314 0 0 0
557 186 2 0.41 16.526294472592845 1.8012123143590784 5.50209909309681 0 0 1
556 186 1 -0.82 15.891554148661788 2.3196870613619867 6.075064296229221 0 0 1
408 136 2 0.41 17.960456289187896 4.178381977561321 3.2139114212918667 0 0 0
406 136 1 -0.82 18.4516421362342 4.311369608401368 4.074754622312822 0 0 0
407 136 2 0.41 19.434918379270645 4.344838749737968 3.895733157298633 0 0 0
1909 637 1 -0.82 21.169680573755738 4.13540281222702 3.5737426158943766 0 0 0
1910 637 2 0.41 21.49971705476853 4.135107118487978 2.6297741683903597 0 0 0
1911 637 2 0.41 21.472441911200452 3.300261806402226 4.0329548769557615 0 0 0
2938 980 1 -0.82 21.387430561658498 2.4018442919004133 6.828237296896425 0 0 0
4270 1424 1 -0.82 22.231276822602258 4.765626516685802 0.8342234572694557 0 0 0
558 186 2 0.41 15.990542925934323 2.0312769128222863 7.027440796933387 0 0 1
540 180 2 0.41 18.47413208727535 6.012960268391086 6.0511599977088535 0 0 0
2939 980 2 0.41 20.85800405425946 1.8410554921953315 6.191665327974283 0 0 0
3132 1044 2 0.41 19.380593837197353 5.143137453279135 8.926143138772368 0 0 0
3131 1044 2 0.41 18.904944075089457 6.4510024032008495 8.071816577761052 0 0 0
3130 1044 1 -0.82 19.410335439088836 6.141501006459844 8.87729123558063 0 0 0
5349 1783 2 0.41 20.804639976520317 5.946208528970423 3.677485767998143 0 0 0
4826 1609 2 0.41 21.069754915566527 3.341025057794673 0.58095713514294 0 0 0
4271 1424 2 0.41 22.31046026241072 5.753162497113583 0.6981956159037839 0 0 0
5348 1783 2 0.41 20.31441809418666 7.118617271516951 4.703042648138364 0 0 0
4825 1609 1 -0.82 20.446054019821695 2.7693259555327843 0.04789287885895907 0 0 0
538 180 1 -0.82 18.062013479157063 6.739107109611442 6.60149552623598 0 0 0
5347 1783 1 -0.82 20.417326936340107 6.865968900479762 3.740972413965013 0 0 0
5439 1813 2 0.41 20.916650873132614 6.918135373229203 9.067397278772008 0 0 0
4827 1609 2 0.41 20.842201088252367 1.8579107183218422 -0.06341689512480321 0 0 0
3530 1177 2 0.41 22.43042541700652 1.4822469573378259 7.957328321004352 0 0 0
4923 1641 2 0.41 15.886803335470958 9.16966616154326 2.234128598451497 0 0 0
5724 1908 2 0.41 17.847615929940524 2.441440159030049 4.372982961007583 0 1 0
949 317 1 -0.82 22.20212025620337 7.378680676264286 1.3630324893494572 0 0 0
950 317 2 0.41 21.66415178323762 7.219148202344257 2.1907642954749993 0 0 0
4447 1483 1 -0.82 16.860841981662613 2.152673351580261 8.77839025861814 0 0 0
5437 1813 1 -0.82 21.62596334885622 7.622961957591154 9.057545672688304 0 0 0
282 94 2 0.41 18.7971064378957 2.6870465892893387 0.4291303505438417 0 1 0
5722 1908 1 -0.82 17.832864005704646 1.4423005712552655 4.411746187401923 0 1 0
3920 1307 2 0.41 16.58980087808025 8.052771636959529 8.836615839968534 0 0 0
4590 1530 2 0.41 18.63403924345994 8.357970947514769 1.0317293375816134 0 0 1
1440 480 2 0.41 15.924594081927104 8.677361597246543 4.511707235544942 0 0 0
5438 1813 2 0.41 21.72191430176366 7.986348053556511 8.130861093151449 0 0 0
2322 774 2 0.41 16.368890549515438 0.5737884673545561 3.98521946611048 0 1 0
4588 1530 1 -0.82 18.859091872753226 7.475223771484597 1.4441728580127728 0 0 1
2940 980 2 0.41 21.860907060757796 3.1231053241805373 6.322665380612837 0 0 0
3073 1025 1 -0.82 22.1528424114053 7.7894835676523115 6.157755516581018 0 0 0
3074 1025 2 0.41 21.935358623614686 8.668582521669759 5.733624668298119 0 0 0
1439 480 2 0.41 17.254064885018437 9.587763632057385 4.246561451102729 0 0 0
480 160 2 0.41 22.260708742442336 0.28695998095408004 0.348008628121194 0 0 1
3450 1150 2 0.41 19.4530469359866 8.995817356969498 4.420234071394566 0 0 0
2320 774 1 -0.82 15.652461803805553 -0.12244048215013517 3.9405525876620406 0 1 0
890 297 2 0.41 19.287180171118017 0.6379248633075543 2.070450381572036 0 0 0
1535 512 2 0.41 19.60230195762792 4.815966758725072 -0.41579553621181353 0 0 1
479 160 2 0.41 20.7433748871438 -0.3159036734727042 0.3776732820660087 0 0 1
4382 1461 2 0.41 20.15751906786992 3.00722824056065 8.083719697514487 0 0 0
4383 1461 2 0.41 18.699455689677148 2.8803893844807815 8.808005670183963 0 0 0
4381 1461 1 -0.82 19.578033221401675 3.357852826289976 8.81942282948958 0 0 0
5723 1908 2 0.41 18.04222714720145 1.070521416097783 3.5073416771179735 0 1 0
1536 512 2 0.41 19.390438485796743 6.299614252211578 0.23268811982983384 0 0 1
478 160 1 -0.82 21.37255998796639 0.33318648325569794 0.8052339511907104 0 0 1
1369 457 1 -0.82 21.676389335752003 1.0782268795262582 3.629290334935089 0 0 1
1679 560 2 0.41 20.05113191702698 9.292881922889155 7.699064367167699 0 0 0
281 94 2 0.41 17.587253958691313 1.6353757851213386 0.11788644926076083 0 1 0
1438 480 1 -0.82 16.28482794875535 9.474914786234786 4.0278264483015525 0 0 0
3448 1150 1 -0.82 18.78893259025151 9.12677113868765 5.156307168002566 0 0 0
5003 1668 2 0.41 29.99524768936283 6.043642161116765 3.0471028337790225 0 0 0
5002 1668 1 -0.82 29.026637412174367 6.253003656661613 3.1811263489053525 0 0 0
3363 1121 2 0.41 25.169123674267592 8.245631649168864 -0.052355987057969997 0 0 0
2372 791 2 0.41 30.457548707258027 1.1798190961177968 5.595827907926877 -1 0 0
3398 1133 2 0.41 28.51977059458299 6.279786260798403 -0.07496413930017704 0 0 1
4272 1424 2 0.41 23.130242363578656 4.386162555850967 1.0530144753646877 0 0 0
3529 1177 1 -0.82 23.007667737357767 1.3110113928893345 8.755745907410493 0 0 0
951 317 2 0.41 23.097259263423606 7.747630442835268 1.6132382447729108 0 0 0
5549 1850 2 0.41 23.967693375316276 -0.47266152842978926 7.651391862806912 0 0 0
5004 1668 2 0.41 28.83574312705479 6.335731240250337 4.159244938244108 0 0 0
1754 585 2 0.41 30.194941502465163 7.382460210048893 6.602786564670647 0 0 0
1753 585 1 -0.82 29.539674662456832 8.137779384654491 6.591898692439569 0 0 0
2598 866 2 0.41 26.511693422240885 2.4154257144075384 1.0770356286002265 0 0 0
4233 1411 2 0.41 23.822515642779873 6.918666819687483 9.234770831290037 0 0 0
5359 1787 1 -0.82 29.787860334150913 3.529690303688046 5.5578056169322085 0 0 0
5360 1787 2 0.41 29.046921336203557 3.3379713974790794 6.201431407517236 0 0 0
5361 1787 2 0.41 30.294058880935196 4.336321256836916 5.862945937053716 0 0 0
194 65 2 0.41 27.58943069494039 6.326109489310254 8.850297371834918 0 0 0
3031 1011 1 -0.82 25.7822596539313 9.171313360218218 7.344871404721799 0 0 0
3399 1133 2 0.41 29.08546157063886 5.5234882812437505 1.2571897872223217 0 0 1
3301 1101 1 -0.82 28.770659625802107 0.2475206351454901 0.8378709419299214 0 0 0
1313 438 2 0.41 29.6567291112241 5.130357933773422 7.797624669701201 0 0 0
869 290 2 0.41 24.33407054175226 2.359373721111845 8.43269182647639 0 0 0
2597 866 2 0.41 26.601390843528733 1.8823537457423534 2.617949403806996 0 0 0
2596 866 1 -0.82 27.114427351019653 2.296413215314234 1.8660527957841206 0 0 0
2635 879 1 -0.82 24.267684849690337 3.0256471344903733 1.327650047981846 0 0 0
2636 879 2 0.41 24.570575950143645 2.807896481468041 2.25546563571468 0 0 0
2637 879 2 0.41 24.025800713253542 2.1814759683785954 0.8492494539020562 0 0 0
5321 1774 2 0.41 24.670427366465024 1.3262187784822808 4.320068998317096 0 1 0
5306 1769 2 0.41 29.72740918605286 3.1205858365708132 3.7739880627892712 0 0 1
5305 1769 1 -0.82 29.742409161014002 3.144333391773138 2.774381959686795 0 0 1
5307 1769 2 0.41 28.81616496881754 3.0060146436073896 2.4237529413230474 0 0 1
5380 1794 1 -0.82 25.57494083599127 5.453406547256074 0.637429810897563 0 0 0
5381 1794 2 0.41 26.486726044441937 5.486569854971939 0.22810333812004296 0 0 0
541 181 1 -0.82 23.42556900232754 4.07618559444475 5.702990459103534 0 0 0
542 181 2 0.41 23.704546239883193 5.030323947698287 5.594400625479202 0 0 0
543 181 2 0.41 23.75015208179602 3.732225045616664 6.5840904487161795 0 0 0
3133 1045 1 -0.82 24.938745829511316 6.993448020316496 5.092260568373048 0 0 0
3134 1045 2 0.41 25.33106639068307 7.328838554422626 4.235756968547335 0 0 0
5382 1794 2 0.41 25.32310398889944 4.501816856317918 0.8136560161296476 0 0 0
51 17 2 0.41 27.894406019332823 7.680783003052702 3.156552248031418 0 0 1
2262 754 2 0.41 26.751949759251513 2.82727376053855 7.342758079851043 0 0 0
1312 438 1 -0.82 28.770587266237403 4.884990265622825 8.190749972123363 0 0 0
2260 754 1 -0.82 27.10587881864888 2.0928012251112493 6.763720392811787 0 0 0
2261 754 2 0.41 26.620805646723856 2.094649542309755 5.889248699374121 0 0 0
582 194 2 0.41 27.721693229874866 5.835685248118336 6.890238869438868 -1 0 0
3135 1045 2 0.41 25.67401513132146 6.70089131386717 5.703644938809867 0 0 0
581 194 2 0.41 28.06036471545833 7.2537186789095776 6.154637488933245 -1 0 0
580 194 1 -0.82 27.40498860679409 6.500746959047707 6.213931858425978 -1 0 0
5322 1774 2 0.41 24.20542055594396 2.852915492045281 4.665891612171074 0 1 0
5320 1774 1 -0.82 24.710516104239655 2.2795486137587893 4.020810340529105 0 1 0
2253 751 2 0.41 27.445772428295353 0.14899224231085564 6.662115681124008 0 1 0
49 17 1 -0.82 27.189717306457965 8.38892906530142 3.2006421736725934 0 0 1
2308 770 1 -0.82 24.65369840976383 0.3017935546052002 0.5425369408273456 0 0 1
3303 1101 2 0.41 27.908377117528357 0.60388736408883 1.1976926962660335 0 0 0
3033 1011 2 0.41 26.460355140294123 8.650001121467076 6.8267784321303475 0 0 0
2279 760 2 0.41 28.697630429847074 8.37082409452308 -0.320072974172507 0 0 1
2373 791 2 0.41 30.345665278329697 0.18144887341788565 6.883215122597693 -1 0 0
59 20 2 0.41 25.021820759345676 7.062955001466131 1.3915785202498552 0 0 0
3032 1011 2 0.41 25.118587637288048 8.543399783473408 7.751398844582933 0 0 0
5329 1777 1 -0.82 29.917110188248092 0.378231946916352 8.590730544178198 -1 1 0
60 20 2 0.41 25.76778920264307 8.283751638077991 2.1788606878409387 0 0 0
3075 1025 2 0.41 23.110149557966302 7.561448282427483 5.980093610403651 0 0 0
58 20 1 -0.82 24.930768192317025 8.007723219908906 1.706415786044394 0 0 0
4259 1420 2 0.41 23.817228823568293 9.4280740469936 1.7736507420201018 0 0 0
50 17 2 0.41 27.621928407354197 9.28187918454862 3.3264764121293933 0 0 1
1755 585 2 0.41 30.025617010504412 8.998448101272817 6.4398774750948915 0 0 0
3397 1133 1 -0.82 28.758728336463324 5.393199528851683 0.32109656419194815 0 0 1
4897 1633 1 -0.82 24.00137733576429 -0.3315344048408855 4.697555934326254 0 0 0
4788 1596 2 0.41 28.77625835879988 1.4927046949682772 -0.3119401560961207 0 0 1
868 290 1 -0.82 24.6901501771038 3.203928079099101 8.032772718969506 0 0 0
870 290 2 0.41 24.55747300560111 3.958723524259827 8.675175006615826 0 0 0
1314 438 2 0.41 28.893972204412886 4.60747217191685 9.143514323314836 0 0 0
195 65 2 0.41 26.571943372360696 7.548339406323526 9.221107989519108 0 0 0
2252 751 2 0.41 28.377108022512694 -0.24314941011615107 7.944872674861116 0 1 0
4787 1596 2 0.41 28.658359327144364 3.121179447649058 -0.2837140122629549 0 0 1
2309 770 2 0.41 24.353021914029217 0.4587673909239996 -0.39818278083640735 0 0 1
3600 1200 2 0.41 7.181893029462609 4.940979636520989 9.297231852006433 0 0 0
1513 505 1 -0.82 6.487562990086466 0.427406319556396 18.648591672739908 0 0 0
4078 1360 1 -0.82 1.4512510962813168 1.5232754444056407 9.367759345727794 0 0 0
3598 1200 1 -0.82 6.840717073356754 5.22268658947871 10.194026249626985 0 0 0
2015 672 2 0.41 5.014118205195541 5.833688827258693 9.71947532706411 1 0 0
5038 1680 1 -0.82 0.5484050530366298 -0.2526999892747953 11.913134533325797 0 0 0
2488 830 1 -0.82 -0.35253536742397507 -0.3947781811921324 14.42381310386757 0 0 0
5274 1758 2 0.41 1.6057738208743944 -0.48784733360389954 17.91222153390118 0 0 0
5693 1898 2 0.41 0.7923879280517737 7.365174203807755 17.970009131725178 0 0 0
4605 1535 2 0.41 2.4757135417677407 1.6886829703754778 18.2294515473975 1 0 0
4415 1472 2 0.41 2.0629567538090012 3.9161625896000727 18.87986726033367 0 0 0
4628 1543 2 0.41 6.66148398672169 5.562266908514404 16.574627919169945 0 0 0
1515 505 2 0.41 6.204523258950917 -0.4934594145628134 18.380459295655363 0 0 0
4629 1543 2 0.41 5.934958853004515 6.157157362065682 17.9106268930067 0 0 0
3222 1074 2 0.41 7.000982581840244 3.9879504996237336 18.240210779329015 0 0 0
4809 1603 2 0.41 1.211717862280299 4.558397826591831 10.118331575859086 0 0 0
1122 374 2 0.41 3.6989863480468568 7.822121701574381 18.785845427714417 0 0 0
2607 869 2 0.41 -0.29555050579818287 4.921492712486506 14.91974533209714 0 0 0
1120 374 1 -0.82 3.71033158782375 7.595128898176062 17.812014938923397 0 0 0
3614 1205 2 0.41 1.6960923599236355 6.919169030184004 11.610991975660275 1 0 0
5449 1817 1 -0.82 4.615953647335052 8.558827917540189 13.408893356346324 0 0 0
2707 903 1 -0.82 0.6911336083418135 4.6808009287566765 11.691119801508803 1 0 0
2709 903 2 0.41 1.0422856289445404 3.7654444855664284 11.888134791308092 1 0 0
2708 903 2 0.41 0.7536369414975699 5.245965756571984 12.513726730688983 1 0 0
4223 1408 2 0.41 7.057104385853508 8.298802520757967 11.025060669103922 0 0 0
1970 657 2 0.41 2.718856627775778 1.9441866100173504 12.299588711665036 0 0 0
1962 654 2 0.41 2.4005573214958154 5.771513496339347 14.132393226612479 0 0 0
155 52 2 0.41 4.696108356259062 7.1939418756427225 14.635779090547498 0 0 0
346 116 1 -0.82 5.96103846175604 2.1598169078289913 9.350027016919691 0 0 0
421 141 1 -0.82 6.015325706256095 2.356837464431672 16.779160974061522 0 0 0
422 141 2 0.41 6.652639875822822 2.568114593288982 16.03808549016012 0 0 0
423 141 2 0.41 5.209216492376178 2.9436826770668656 16.702994713153824 0 0 0
1960 654 1 -0.82 1.4786995884364889 6.081190679628005 13.899414465602181 0 0 0
1961 654 2 0.41 1.4655879120787625 7.07978108615276 13.847973339067751 0 0 0
3832 1278 1 -0.82 2.4340488915122784 0.5830076408494904 15.079619385439896 0 0 0
3833 1278 2 0.41 1.5844438137898573 0.21703730724867876 14.699833212564224 0 0 0
3834 1278 2 0.41 2.3164996254363808 1.5548784182372428 15.283701902793364 0 0 0
5476 1826 1 -0.82 4.646303330500599 3.7198887494942046 13.593522475420432 0 0 0
5477 1826 2 0.41 4.280544413637152 3.1160062764202463 14.301722428500106 0 0 0
5478 1826 2 0.41 4.226650364292287 4.623740525227939 13.676854789434252 0 0 0
1514 505 2 0.41 6.370742172527077 1.0504639813414383 17.87518871318397 0 0 0
4224 1408 2 0.41 6.281832337969863 6.861759958900626 11.002955969316409 0 0 0
306 102 2 0.41 4.829324620011795 1.7673452562417133 10.780529842747647 0 0 0
2014 672 1 -0.82 4.077311178257057 5.6005777047474234 9.458606783476002 1 0 0
304 102 1 -0.82 4.433887353607658 1.4862038562497242 11.6549376153076 0 0 0
4222 1408 1 -0.82 6.239938683848175 7.807209463530161 11.326021170826701 0 0 0
156 52 2 0.41 4.776375110234519 5.916165439710692 15.649421897845352 0 0 0
154 52 1 -0.82 4.404983948918672 6.248571895919164 14.78248766448123 0 0 0
5655 1885 2 0.41 1.030453974058345 8.159446831389952 15.792628889197854 0 0 0
305 102 2 0.41 4.547951705061575 2.2207211403423766 12.323872366564304 0 0 0
5451 1817 2 0.41 5.23883967328242 8.137614096063494 12.74965745445644 0 0 0
5653 1885 1 -0.82 0.39346097497149707 7.912987024144891 16.523038711662956 0 0 0
2606 869 2 0.41 -0.398123685816298 5.257202435244145 16.514550725051823 0 0 0
3615 1205 2 0.41 2.812580395494758 6.598077229192172 10.463393663220442 1 0 0
5654 1885 2 0.41 -0.360069013464396 8.570068462213502 16.543936222164643 0 0 0
348 116 2 0.41 6.603598189862577 1.4408846066618022 9.615082539598905 0 0 0
706 236 1 -0.82 7.121043663137351 4.417564067507328 14.231163675560447 0 0 0
149 50 2 0.41 2.473510495276134 9.182822705143687 10.670334225842472 0 0 0
3613 1205 1 -0.82 2.2024180819665444 7.297285243261641 10.835967726339451 1 0 0
708 236 2 0.41 6.212367483720033 4.13379944653574 13.924917662115961 0 0 0
1971 657 2 0.41 1.2014895977670317 1.3657686124599577 12.471800468327764 0 0 0
4603 1535 1 -0.82 1.9649027633637512 2.417397670975446 17.77332955264472 1 0 0
2019 673 2 0.41 3.77190489131735 4.506138551851775 16.354818788364213 1 0 0
2018 673 2 0.41 2.956798115567544 3.1337282930171315 16.699372917050226 1 0 0
2017 673 1 -0.82 3.6281805859039995 3.5530802857266823 16.0883168260541 1 0 0
4079 1360 2 0.41 1.8448463207021895 1.5382544969074672 10.286921414649898 0 0 0
1969 657 1 -0.82 1.7613098985981825 2.1939043154187363 12.443624637164064 0 0 0
1121 374 2 0.41 2.7754171381533808 7.431931481950215 17.496893108465684 0 0 0
4675 1559 1 -0.82 2.2578983198127167 8.720329188607764 14.619274493245825 0 0 0
2722 908 1 -0.82 5.934593162970223 8.58552129987443 16.330892305483694 0 0 0