LAMMPS data file via write_data, version 2 Aug 2023, timestep = 10000, units = metal

4000 atoms
1 atom types

0 40.9 xlo xhi
0 40.9 ylo yhi
0 40.9 zlo zhi

Masses

1 107.87

Atoms # atomic

400 1 36.728461223048434 18.38679276602029 5.9843576026325005 0 0 0
2239 1 38.828951248599964 20.345654224640178 6.154342057402524 0 0 0
399 1 38.94301428948861 16.220255787403534 6.0172297493862885 0 0 0
4 1 0.007310477341992375 2.0553795179888743 1.9154223643761525 0 0 0
398 1 38.848725378963756 18.37529495048134 4.071195042557416 0 0 0
2237 1 36.76664154063042 20.410409944183968 4.079029410625566 0 0 0
7 1 6.21372613809378 0.06302195078316965 2.029121804408565 0 0 0
8 1 4.16160669204314 2.056376835420303 1.9625263903193073 0 0 0
2225 1 24.569790762906287 20.361290673505042 4.295775394011693 0 0 0
2223 1 22.429387019015152 20.3918666968649 6.161854214452673 0 0 0
397 1 36.826833717794244 16.249098682002984 4.1826778831139 0 0 0
12 1 8.110816199024105 2.054506144844507 1.9386170232290145 0 0 0
2221 1 20.31122486210066 20.312140358981864 3.9470528629910673 0 0 0
2219 1 18.310361125870777 20.33677908660565 6.186031541102634 0 0 0
396 1 32.63404047451524 18.304244044673446 6.115590037238112 0 0 0
16 1 12.163718051356025 2.043793996144102 2.027496839879755 0 0 0
17 1 16.4328396543549 0.053974664812790084 0.19950396640872892 0 0 0
18 1 18.440818168640792 2.062571830794477 0.023026623313740013 0 0 0
19 1 18.475061181700283 0.08520253637832734 2.0389128491265063 0 0 0
20 1 16.313751217978748 2.1190095681163075 2.0880705274861735 0 0 0
395 1 34.77196674899533 16.242267090373453 6.159479390900666 0 0 0
2217 1 16.37200816100286 20.199387604778465 4.23354163682252 0 0 0
394 1 34.807726846399305 18.490531535033966 4.0243816738042275 0 0 0
24 1 20.399756150552765 2.10834429009212 1.980015813327542 0 0 0
393 1 32.83919314119417 16.28261244255856 4.021830945664829 0 0 0
2215 1 14.278373722111986 20.40122733102509 6.300661651721531 0 0 0
392 1 28.619121907110703 18.470683532199676 5.984414271216102 0 0 0
28 1 24.78088029893243 1.9353068052146387 2.128083060808288 0 0 0
2213 1 12.188154166009145 20.41148933867979 4.044424793861941 0 0 0
2211 1 10.298876333701285 20.40378925522878 6.164819784091455 0 0 0
391 1 30.701237234703058 16.261205383193097 6.194903601925077 0 0 0
32 1 28.70308539360315 2.113291244719164 1.9546789887688596 0 0 0
2209 1 8.166683914312001 20.262919910101342 4.0786069862091905 0 0 0
2205 1 4.1784432573186665 20.397980775904706 4.140878952179981 0 0 0
390 1 30.652995318526084 18.155053187045645 4.233799389503185 0 0 0
36 1 32.71182198308796 1.972191505440809 2.04407146392308 0 0 0
2203 1 2.02704585028161 20.39872249869426 6.177542404249491 0 0 0
2031 1 30.56580624545545 20.382445172219683 2.189766180437695 0 0 0
39 1 38.75693261779898 0.046000451558064114 2.0430887295112874 0 0 0
40 1 36.621704646705155 2.151772401434302 1.9845977119133376 0 0 0
2023 1 22.477418651105577 20.374290480628293 2.0658696583724168 0 0 0
2019 1 18.240541350425495 20.251943895629072 2.00005110905838 0 0 0
43 1 2.147011669043101 4.12051150905 2.0463956363266482 0 0 0
44 1 0.005762062480621459 6.05517010498264 1.9180150781336824 0 0 0
2015 1 14.315365626737687 20.412849964010583 2.1789339177760976 0 0 0
2013 1 12.479989599737333 20.41891560349823 0.20928022369421823 0 0 0
47 1 6.1388182089675745 4.132405127768296 2.0077127790464555 0 0 0
48 1 4.188603693667092 6.057755919592791 2.076347032581298 0 0 0
49 1 8.141093718154861 4.104290367453756 0.023632491060211314 0 0 0
2011 1 10.154718019364248 20.24830981325467 2.0790110416386822 0 0 0
51 1 10.136690131994952 4.122956006302206 1.8756582612347832 0 0 0
52 1 8.10768582502564 6.104419170398852 1.9550595512413773 0 0 0
2007 1 6.126976018272128 20.337459507555092 1.9201235901331402 0 0 0
381 1 20.420340263247304 16.470809333488592 4.164993017704896 0 0 0
55 1 14.309515797384506 3.995199868728305 1.9786988552886382 0 0 0
56 1 12.045865001958663 6.0589543210755625 2.0871337765523252 0 0 0
380 1 16.33005626396351 18.317345826769476 6.146181719901809 0 0 0
379 1 18.412656612386286 16.519340120366703 6.177752974951823 0 0 0
59 1 18.31365535324503 4.224340584451377 1.9125716592624296 0 0 0
60 1 16.256724769846517 6.120844502296653 1.9356248146153323 0 0 0
61 1 20.469926875120052 4.3502232356494055 0.015882883201810815 0 0 0
378 1 18.38104204564735 18.305310346231806 4.169357609142789 0 0 0
63 1 22.46472536938166 4.105029205051913 2.022095692115792 0 0 0
64 1 20.41945512349844 6.238860970386908 1.9787690121201729 0 0 0
65 1 24.605472833415465 4.0336613315934295 0.05403999876434498 0 0 0
66 1 26.511305819378087 6.190277409650505 0.04314455566253211 0 0 0
67 1 26.72442939531866 4.006716671860708 2.1642689223086937 0 0 0
68 1 24.489251838311436 6.094380348261692 1.9834304898047168 0 0 0
377 1 16.44906256933176 16.20160728320837 4.079576584343856 0 0 0
70 1 30.72873192015055 6.096382457328937 0.025064953757268964 0 0 0
71 1 30.862820391761606 4.047692463459554 2.0315124802900653 0 0 0
72 1 28.707278778022772 6.10525821826876 2.0048843349819516 0 0 0
376 1 12.359152417128662 18.47373765732437 6.384262487031022 0 0 0
74 1 34.733647056813226 6.2899378133984065 0.12076816514214066 0 0 0
75 1 34.7081618698932 4.195545625102548 2.1687489084847864 0 0 0
76 1 32.795904466156735 6.240154167253535 2.1587926890819498 0 0 0
77 1 36.75269726932732 4.171826589180978 0.08279226901611399 0 0 0
375 1 14.201607860409664 16.286803952754187 6.146137994270875 0 0 0
79 1 38.90104440163905 4.127132178213718 2.168491027345125 0 0 0
80 1 36.94012479025811 6.045659173719017 2.17333598623113 0 0 0
374 1 14.336280842245925 18.350945144138514 4.17350499373517 0 0 0
373 1 12.313235340350671 16.363264095062856 4.22752481722339 0 0 0
83 1 1.9172878902007144 8.265357141074345 1.9370918009993894 0 0 0
84 1 40.802199735150865 10.148499687430201 2.143402731473915 -1 0 0
85 1 3.9615697791683244 8.302109764442845 0.05072632591872153 0 0 0
372 1 8.175334053486013 18.532129102079416 6.346585223162434 0 0 0
87 1 6.210959306029223 8.186476509197796 1.9587807317506145 0 0 0
88 1 4.202831976135267 10.317211972261681 1.965320384466197 0 0 0
371 1 10.273483494849293 16.356154719118923 6.190706339771373 0 0 0
90 1 10.085909837284381 10.16901675552574 0.10495170009869181 0 0 0
91 1 10.223046480550003 8.172262305795723 2.0460963542087955 0 0 0
92 1 8.112845733028278 10.281684544706136 2.027807483058078 0 0 0
93 1 12.33957508910996 8.248398299926746 0.0780798337147678 0 0 0
94 1 14.27951291570716 10.29574569219716 0.010675887257934355 0 0 0
95 1 14.17637632630045 8.129224347131036 1.965080712135342 0 0 0
96 1 12.218561145085872 10.31262060609271 1.9772183171478543 0 0 0
97 1 16.11932933821347 8.253587888410813 0.07621900182924045 0 0 0
370 1 10.266088279740751 18.366085373929305 4.034867799210384 0 0 0
99 1 18.422898890379106 8.152623469597419 1.991711986287024 0 0 0
100 1 16.32863507487079 10.18874450454163 2.002671959478491 0 0 0
369 1 8.21202935446114 16.391571039130646 4.095374635843505 0 0 0
368 1 4.101857156412941 18.362114094415826 6.090355207572481 0 0 0
103 1 22.487091443060663 8.04058552504927 1.9419550937720644 0 0 0
104 1 20.393753888793395 10.11667883828584 2.00493339508485 0 0 0
105 1 24.639695280478684 8.160468183689987 0.04989261429944522 0 0 0
106 1 26.591147379569442 10.244876918240271 0.1741037487104611 0 0 0
107 1 26.577815531128447 7.989834573998386 2.0923116952320253 0 0 0
108 1 24.511931507794678 10.226000845157257 2.009109553403973 0 0 0
109 1 28.711832191825593 8.27650163965432 0.14127592179879772 0 0 0
110 1 30.659229277337026 10.247336162348413 0.22674616460768857 0 0 0
111 1 30.790861332162155 8.022033128137341 2.01348686841829 0 0 0
112 1 28.67631284500162 10.022850479771321 2.113050602310187 0 0 0
367 1 6.3274390723131715 16.356289713491336 6.2026343563281525 0 0 0
114 1 34.66523828329154 10.293765123084 0.08059365173008445 0 0 0
115 1 34.701543660391124 8.174084533603601 2.2047856648075266 0 0 0
116 1 32.709699898500574 10.234524770511513 2.127314185416535 0 0 0
366 1 6.155512311856035 18.315324934360245 4.135670471284079 0 0 0
118 1 39.0042484126974 10.135550789464812 0.021091166178763585 0 0 0
119 1 38.953496713273964 8.205504166997606 2.060141592374496 0 0 0
120 1 36.81164103326909 10.035558356183676 2.0176096146380247 0 0 0
365 1 4.070239319324653 16.356366126720957 4.115355385319666 0 0 0
364 1 40.83582664585472 18.37029362441075 5.928116799245602 -1 0 0
123 1 2.0194131383534795 12.242869887724835 1.9931136514100898 0 0 0
124 1 0.22828516369537183 14.251682260872636 1.922707339677758 0 0 0
363 1 2.065195570043508 16.343973485700204 6.195547575467046 0 0 0
362 1 2.0014484724764583 18.315928252052416 4.085203870589348 0 0 0
127 1 6.08151787818879 12.3801106873038 2.0111769407355276 0 0 0
128 1 4.076075943638477 14.180485588112308 2.1216886812704225 0 0 0
361 1 0.047585274550878305 16.36948310234105 4.067099413374861 0 0 0
360 1 36.89542905334288 14.20121377769907 6.221416365211198 0 0 0
131 1 9.974704964251297 12.257368702814286 1.9017991420647546 0 0 0
132 1 8.111697338038278 14.346865866484073 1.9408773310554157 0 0 0
133 1 12.069679410467284 12.30646926244254 0.1658818313107879 0 0 0
359 1 38.847773180332524 12.279826956706634 6.155009152755284 0 0 0
135 1 14.403291724470202 12.359335615497633 2.120609698928963 0 0 0
136 1 12.239051730873035 14.424026379295022 2.1126452789497967 0 0 0
358 1 38.9291743569584 14.243323247239925 4.014381644246955 0 0 0
138 1 18.344934946186097 14.325808405341975 0.03004980992633363 0 0 0
139 1 18.496270366353414 12.392285852042997 2.0984082233721635 0 0 0
140 1 16.38328767511384 14.195561907457149 2.1315066906621447 0 0 0
357 1 36.86190738006886 12.194937511394755 3.997206232237152 0 0 0
356 1 32.75338061109117 14.35711523609297 6.192023407686509 0 0 0
143 1 22.525697913059812 12.28066786175531 2.0559824015643176 0 0 0
144 1 20.527790058841845 14.383957697243453 2.1810072357868013 0 0 0
355 1 34.75259923222126 12.175957073256946 6.170871360208792 0 0 0
146 1 26.744433292748443 14.204993782489437 0.09484817754054524 0 0 0
147 1 26.566681311193417 12.123693186465344 2.090789494529493 0 0 0
148 1 24.60753276734533 14.203631987503796 1.9729789873515602 0 0 0
149 1 28.79435441578627 12.37011693869338 0.0901764487514251 0 0 0
150 1 30.669167554913304 14.408980797151793 0.06701645613936202 0 0 0
151 1 30.67970459694843 12.316252831473518 2.1499206314194494 0 0 0
152 1 28.63437817564853 14.236302580037261 2.147179906339265 0 0 0
153 1 32.79059513503021 12.221039947356603 0.000977478235906647 0 0 0
154 1 34.87235050237143 14.172350855283204 0.04808300372356148 0 0 0
155 1 34.84860571606128 12.1913341185828 2.0977440013525586 0 0 0
156 1 32.83962065968201 14.341152170824234 2.0445850976510775 0 0 0
157 1 36.979376271814516 12.187427761558478 0.04936198655901993 0 0 0
354 1 34.818128442955725 14.235853068342312 4.181856118333224 0 0 0
159 1 38.963446235964945 12.156253151158479 2.0400322505320845 0 0 0
160 1 36.83621882472203 14.292465170801371 2.050521228400099 0 0 0
353 1 32.732001606777494 12.283150585454662 4.224917373264046 0 0 0
162 1 2.102076043012001 18.483517799133743 0.04620884494871454 0 0 0
163 1 2.0417609043724667 16.400465129316135 2.0806144288478077 0 0 0
164 1 40.822361125691195 18.5370291909381 1.9615223037516372 -1 0 0
165 1 4.122527308338569 16.38066756437677 0.13866695963945702 0 0 0
166 1 6.243524324357382 18.31569163778651 0.04582894110807654 0 0 0
167 1 6.127945786407017 16.31436426747468 2.0923616882749405 0 0 0
168 1 4.1457676412487565 18.377903562089703 2.019542741267565 0 0 0
352 1 28.707279213022325 14.187102693089429 6.141461564439522 0 0 0
351 1 30.573598893387395 12.166141033465337 6.170967281367975 0 0 0
171 1 10.379046208785446 16.35508151209957 1.956108614110935 0 0 0
172 1 8.265211618143983 18.305710749175077 2.01929159359773 0 0 0
350 1 30.67606989889016 14.29949301551576 4.127220138433333 0 0 0
174 1 14.376040734842285 18.34703371143617 0.0075415971929063295 0 0 0
175 1 14.3854604884511 16.22430364652032 2.0321283171238598 0 0 0
176 1 12.186541060496715 18.330539104065245 2.1206996434452483 0 0 0
349 1 28.50665002844955 12.071745317183025 4.065605100812198 0 0 0
348 1 24.492822358163075 14.228596165152945 6.098334709298773 0 0 0
179 1 18.41253209233829 16.26398925540454 2.124566802838718 0 0 0
180 1 16.30946614455485 18.34632546585757 2.1639159187548054 0 0 0
181 1 20.378050637645085 16.3220596561823 0.04550610952377384 0 0 0
182 1 22.601773747466478 18.44105411374003 0.1431824008706423 0 0 0
183 1 22.464338261982686 16.318012835479454 2.2220820042033886 0 0 0
184 1 20.536010067370384 18.34422068035105 1.944032287422248 0 0 0
185 1 24.595149375837067 16.39744044551869 0.13028650888771753 0 0 0
347 1 26.5300578286304 12.091332622398607 6.285617032899739 0 0 0
187 1 26.70003881133929 16.444370309465246 2.156588759931147 0 0 0
188 1 24.537353575531327 18.49775884857595 2.150707394362604 0 0 0
189 1 28.538969333034025 16.322394479839158 0.11281848333919044 0 0 0
190 1 30.666592363119932 18.403424874171822 0.13626126640927794 0 0 0
191 1 30.454766874643166 16.347087463229986 2.180829891688939 0 0 0
192 1 28.554228734546044 18.3399687330669 2.0962131199986462 0 0 0
193 1 32.686357096233515 16.444506259447845 0.04251651366941382 0 0 0
346 1 26.525497639963028 14.140936793888635 4.239777622739638 0 0 0
195 1 34.79101377654141 16.506174131897694 1.9617829214482174 0 0 0
196 1 32.56361715180775 18.452647588064675 2.253391701736578 0 0 0
197 1 36.790705739172346 16.347293602075997 0.05972678774755511 0 0 0
345 1 24.55609976665467 12.087481396053985 4.057565393938076 0 0 0
199 1 38.94808238793494 16.281971902327466 1.9547868999852394 0 0 0
200 1 36.77410640911188 18.444436475647805 2.07828789788806 0 0 0
201 1 0.07558361521932429 0.29941765069406256 4.058636101514042 0 0 0
202 1 2.123190438688576 2.0407335144022065 4.073092817948365 0 0 0
203 1 2.0363248651115153 0.06209276614351168 6.0715324172792755 0 0 0
204 1 40.853835944686956 2.0060037181082704 6.211298795785314 -1 0 0
205 1 4.068579381152096 0.06109931075213288 4.062874261455928 0 0 0
206 1 6.131975040477375 2.12949739504317 4.075699333605278 0 0 0
389 1 28.512022553772763 16.234579636752123 4.226374497543141 0 0 0
208 1 4.123538508326279 2.1344259740148073 6.082683824333112 0 0 0
209 1 8.096378683243394 0.047067028645886876 3.9581602352447662 0 0 0
210 1 10.141738803410455 2.0436798211293 4.0290631184238865 0 0 0
211 1 10.200790286585853 0.059060372170520875 6.1611443807834245 0 0 0
212 1 8.103548487336413 1.8554865231344133 6.043613832857413 0 0 0
388 1 24.688037932904045 18.34847854323191 6.154541438733351 0 0 0
214 1 14.286287643389832 1.9945301347274258 4.0400578984223685 0 0 0
387 1 26.61883127045826 16.30950146266513 6.193315745868154 0 0 0
216 1 12.296933323383625 2.0365345159337216 6.071112316243603 0 0 0
217 1 16.47122980331636 0.028073065038956492 3.9999014563097894 0 0 0
218 1 18.44144457890232 2.0109919909891842 4.148850306140019 0 0 0
219 1 18.446366606692443 0.015643353523414952 6.086663036157577 0 0 0
220 1 16.399922675709036 2.036920260028482 6.007141763502876 0 0 0
386 1 26.527770118660793 18.324719783959594 4.164690438981276 0 0 0
222 1 22.511650748770013 2.059690709309226 3.8829112458872648 0 0 0
385 1 24.530568697177756 16.444276767795902 4.295505458570614 0 0 0
224 1 20.543859547990934 2.0184736558910656 6.020958715373071 0 0 0
225 1 24.554202226324676 0.018056733006982368 4.029105756559843 0 0 0
226 1 26.707407151532607 1.890434600888631 4.1339399931943115 0 0 0
227 1 26.682900811586308 0.02764774700625036 6.232213392535809 0 0 0
228 1 24.630473003321207 1.9156240860559948 6.0329356024099035 0 0 0
384 1 20.388209990330658 18.46984861521219 6.239315225050115 0 0 0
230 1 30.703409877942754 2.082816920001512 4.06970947086264 0 0 0
383 1 22.403688349887855 16.479234991789607 6.17017883915295 0 0 0
232 1 28.593876009015904 2.1661919910356486 6.185564895166317 0 0 0
382 1 22.468596247669247 18.449825347597262 4.138926463080072 0 0 0
234 1 34.6868842715814 2.0537898561309382 3.978052007522967 0 0 0
235 1 34.75000434657371 0.1650097173925661 6.318893705128252 0 0 0
236 1 32.75344280168934 1.9492609394920644 6.034243468408507 0 0 0
237 1 36.707481450939774 0.030774818503440132 4.067511241485093 0 0 0
238 1 38.815714019159984 2.0835263348451405 4.122121721639093 0 0 0
239 1 38.86195029642272 0.013961155531370083 6.169489513230905 0 0 0
240 1 36.86457903230313 2.010551524724833 6.091830195179312 0 0 0
241 1 0.17698991366712263 4.08108827888845 4.123967840328967 0 0 0
242 1 2.0936895463720013 6.249101997244256 4.095086845813553 0 0 0
243 1 2.14012999071207 4.0325334087256355 6.098122854522264 0 0 0
244 1 0.01927712063396175 6.041327753736717 6.271061365321436 0 0 0
245 1 4.0974359131842215 4.070614475285984 4.129947515369076 0 0 0
246 1 6.145051290419521 6.028525421449134 4.085737350826857 0 0 0
247 1 6.074811484095041 4.012254934414104 6.199695288397447 0 0 0
248 1 4.137975464969354 6.117057577098877 6.140160949079834 0 0 0
249 1 8.085257191045137 4.089940700456345 4.11146270490362 0 0 0
250 1 10.275000055200879 5.965046690376279 4.129056246480972 0 0 0
251 1 10.172398754737472 3.9674619095507135 6.147218007591634 0 0 0
252 1 8.279765051487901 5.985128351344103 6.058219846131796 0 0 0
253 1 12.163013595875741 3.960897412069158 3.973452137516789 0 0 0
254 1 14.297252095493526 6.123500413305501 3.962672734444474 0 0 0
255 1 14.386147516582962 4.176946627349462 6.145330694250466 0 0 0
256 1 12.402453378445191 6.053055101391823 5.9855852089038715 0 0 0
257 1 16.208666006071166 4.1449096498528455 4.020475888789178 0 0 0
258 1 18.444826019912725 6.006830295359263 4.022284722526827 0 0 0
259 1 18.51607581987338 4.058994162674834 6.101910838159723 0 0 0
260 1 16.484613179424915 6.250120964160101 5.998699663839495 0 0 0
261 1 20.4339368214958 4.16181124459032 3.9821291995249246 0 0 0
262 1 22.55286462975545 6.042798667422361 4.103506812934679 0 0 0
263 1 22.61194272807188 3.96748809391226 5.9110125334330705 0 0 0
264 1 20.422314187268874 6.126649995860405 6.006992495971188 0 0 0
265 1 24.50139935311349 4.057902146987234 3.995685227628406 0 0 0
266 1 26.62631645149157 6.112069573593046 3.9361511583791833 0 0 0
267 1 26.594399927714043 4.064202365859643 5.993415376467528 0 0 0
268 1 24.555887784209446 6.118882934128522 6.091890736311825 0 0 0
269 1 28.64911580596444 4.131656053214859 3.9778772662884005 0 0 0
270 1 30.690334623089363 6.0217591662349035 4.08730022353351 0 0 0
271 1 30.637014133337225 4.079112439661513 5.926587978416353 0 0 0
272 1 28.623896335126382 6.208285486950985 6.05925527381983 0 0 0
273 1 32.80700464187856 4.083799203528649 4.25496777257188 0 0 0
274 1 34.801884756285936 6.120731073032789 4.239303730732826 0 0 0
275 1 34.78278405784011 3.9412326936450617 6.23935266843562 0 0 0
276 1 32.85332094695611 6.07090647256905 6.090610613341044 0 0 0
277 1 36.82382785409196 3.960208550009052 4.08056662133448 0 0 0
278 1 39.00993986930381 6.1188812964702555 4.176323521692656 0 0 0
279 1 38.88503298711961 4.094903628772104 6.23901128660056 0 0 0
280 1 36.91590735527144 6.114066955778749 6.0419230842688165 0 0 0
281 1 0.1019522975287032 8.081065028136287 4.028869887664975 0 0 0
282 1 2.155567564094038 10.068196815866873 4.037031802455482 0 0 0
283 1 2.1240135788037704 8.00269889270502 6.179148687951507 0 0 0
284 1 0.1125971766300421 10.185226436487321 6.132806731147357 0 0 0
285 1 4.124428902098992 8.198224616838209 4.063239609218405 0 0 0
286 1 6.253254510313161 10.3064809259284 4.077963315957411 0 0 0
287 1 6.236477833747243 8.244099890386126 6.009736811382674 0 0 0
288 1 4.022689272107504 10.055114296620918 6.206362838024558 0 0 0
289 1 8.275451624898462 8.070439620559833 3.9729189011743458 0 0 0
290 1 10.16191833465875 10.235602556720632 3.8740527280481127 0 0 0
291 1 10.241278092752447 8.144356002612255 6.062368013022399 0 0 0
292 1 8.224850995972927 10.269314293647568 6.263041492913223 0 0 0
293 1 12.22796453636453 8.20055918926597 3.9080482209733463 0 0 0
294 1 14.165518469985821 10.202047122765759 3.9485825112628716 0 0 0
295 1 14.226381919663197 8.199363898585714 6.073346970746675 0 0 0
296 1 12.19971431748543 10.228324995099419 5.992786231197684 0 0 0
297 1 16.350572009079965 8.20840111690869 3.9678025530370027 0 0 0
298 1 18.434166847019593 10.221087749772815 4.0926678515529336 0 0 0
299 1 18.464042473326277 8.330502910310406 6.168734685954886 0 0 0
300 1 16.365129583740696 10.119936466797057 6.120236715954161 0 0 0
301 1 20.414824915766232 8.142203205674072 3.9261327897167355 0 0 0
302 1 22.557927466744953 10.102902526848183 3.9794390080679722 0 0 0
303 1 22.520266655613984 8.154529588678473 6.09532092345982 0 0 0
304 1 20.627345450398504 10.220279059643506 6.196447705317989 0 0 0
305 1 24.529465131469852 8.115956155947156 4.0501414361015495 0 0 0
306 1 26.58078128092686 10.092028402490872 4.122154891649696 0 0 0
307 1 26.547134678204255 8.050023897468702 6.122020922438897 0 0 0
308 1 24.504373187389923 9.963696897696062 6.171625482620411 0 0 0
309 1 28.715517826419333 8.147607158393068 4.019634237076036 0 0 0
310 1 30.70597569524113 10.276421104757222 4.052554243490903 0 0 0
311 1 30.75204083052077 8.160336439580046 6.16682532204512 0 0 0
312 1 28.686334101435484 10.04740859867501 6.133556581905526 0 0 0
313 1 32.67144769937086 8.178215827905913 4.1769719604085065 0 0 0
314 1 34.8377433141022 10.186843628088512 4.151141424873322 0 0 0
315 1 34.84210518233345 8.200129091281523 6.063578688982116 0 0 0
316 1 32.70710652023956 10.219459789470978 6.118720341766829 0 0 0
317 1 36.84836221434644 8.245064901149465 4.172532888291866 0 0 0
318 1 38.8867486064724 10.28571522016981 4.2379299203493535 0 0 0
319 1 38.98677841739388 8.26553521540201 6.188538801391558 0 0 0
320 1 36.82727191012586 10.238993135755816 6.193708974820035 0 0 0
321 1 0.08210798338437149 12.227324894008968 4.1153250724016806 0 0 0
322 1 2.2293768970000643 14.230315473444403 4.096765459657324 0 0 0
323 1 2.133231656056729 12.241852063493402 6.041971370439888 0 0 0
324 1 0.13943678178648697 14.37956254357522 6.030865794408721 0 0 0
325 1 4.189632806722851 12.264390336573449 4.204207079752228 0 0 0
326 1 6.297182616784254 14.4189473127243 4.1692942006960845 0 0 0
327 1 6.167552778339053 12.103844818789167 6.159275333157561 0 0 0
328 1 4.241367514236518 14.398600645660093 6.3027046383961 0 0 0
329 1 8.156230032443577 12.265801448321467 4.084022528290629 0 0 0
330 1 10.120018150090978 14.237407742181286 3.9572621251007636 0 0 0
331 1 10.164405606576087 12.215828267343486 6.061497790235649 0 0 0
332 1 8.270966178108434 14.245500497127557 6.194443416040745 0 0 0
333 1 12.24216535496668 12.181679154235207 3.962388756585716 0 0 0
334 1 14.355872628057837 14.199377350473585 4.099425684424029 0 0 0
335 1 14.233323754770003 12.14871642204661 6.006320267714923 0 0 0
336 1 12.304288137338306 14.371013245203374 6.1430925473031 0 0 0
337 1 16.47865710835496 12.150887918426848 4.161395419388956 0 0 0
338 1 18.511713460691357 14.361200053396082 4.1475235349684505 0 0 0
339 1 18.463920702379404 12.299323685848478 6.02737804712432 0 0 0
340 1 16.45750817720887 14.299683492047802 6.072842492959534 0 0 0
341 1 20.389145348878817 12.214173720034765 4.157279927037294 0 0 0
342 1 22.534732769718495 14.224785162237971 4.214351276964559 0 0 0
343 1 22.609073091740076 12.156376891969256 6.082952698272114 0 0 0
344 1 20.51433128308682 14.415198498415842 6.122244231995226 0 0 0
402 1 2.2496694765265506 2.015347617864373 8.088076023463428 0 0 0
406 1 6.140931686467277 1.902221849811058 8.061776916706282 0 0 0
413 1 12.289870644045465 0.11951614350003795 8.173757449886118 0 0 0
417 1 16.525055459458972 0.02784645919738113 8.174813566768632 0 0 0
418 1 18.45551283753835 2.170003449387305 8.092415085915539 0 0 0
421 1 20.321417952695302 0.15750846513341815 8.127903578884053 0 0 0
422 1 22.59362039076618 2.0537387431813587 8.091867334114877 0 0 0
430 1 30.76161934688846 2.1215079980808436 8.104719806076567 0 0 0
449 1 8.093471889090878 4.04309528498375 7.99036967477942 0 0 0
450 1 10.420190780359922 6.119982921652299 8.036839609389157 0 0 0
2437 1 36.794777342713054 20.322196682411942 8.12496233823963 0 0 0
454 1 14.42573444521215 6.27318764938684 8.016797153273124 0 0 0
2433 1 32.594775746864116 20.344896347915984 8.05872814157008 0 0 0
457 1 16.3621005918823 4.15114096959464 8.088893821287808 0 0 0
461 1 20.586163945895585 4.172540576592187 8.081202174702996 0 0 0
465 1 24.598448660017254 4.065698310312274 8.033668168360673 0 0 0
466 1 26.50319811269414 6.176497054101599 8.01135184583744 0 0 0
469 1 28.51309980372242 4.139347679670451 8.131019725765201 0 0 0
470 1 30.79704458707539 6.149365360587294 8.069476173640888 0 0 0
473 1 32.69158874015004 4.10436601045417 8.114056467760937 0 0 0
477 1 36.843646457628175 4.117050195361122 8.046832523328272 0 0 0
489 1 8.350778517503679 8.042159821766816 8.15439634475791 0 0 0
493 1 12.198815400468115 8.169317014309064 8.077337511837403 0 0 0
494 1 14.31693723096085 10.239592446298634 8.044722858949727 0 0 0
498 1 18.426933864375453 10.322284684022705 8.073376688668711 0 0 0
501 1 20.456593577161346 8.106365339958042 8.17298221405227 0 0 0
505 1 24.49138470663555 8.14210434019444 8.072838512117599 0 0 0
513 1 32.777728329026296 8.145508459234163 8.116408533084146 0 0 0
518 1 38.86903472558452 10.315468497300346 8.169912799876258 0 0 0
521 1 0.1407214313291245 12.257732395564556 8.117559988900195 0 0 0
522 1 2.0247298071211706 14.25580841674449 8.058807283114612 0 0 0
537 1 16.47177641591186 12.232325688820161 8.060045622716515 0 0 0
538 1 18.559219292311546 14.328615753692405 8.076058513491787 0 0 0
542 1 22.52900938465724 14.286586803653224 8.121461832327979 0 0 0
546 1 26.398338661043738 14.221762438898905 8.109311380073317 0 0 0
549 1 28.519263197623932 12.159152945210312 8.087774607552713 0 0 0
573 1 12.31463238207862 16.320256420316444 8.158037839554448 0 0 0
574 1 14.324481293531097 18.295395149282445 8.150670974294275 0 0 0
585 1 24.479954141590163 16.29333574418891 8.125816191233836 0 0 0
586 1 26.51826811565953 18.257477350975112 8.093669746178183 0 0 0
589 1 28.575670132199374 16.252433389609802 8.165437188631344 0 0 0
590 1 30.679443459486627 18.27808790304522 8.013044592017724 0 0 0
597 1 36.6856413063175 16.283333028483092 8.091291835761051 0 0 0
598 1 38.68742859545072 18.30034964654994 8.147358024250472 0 0 0
800 1 36.75438839140738 18.325794868947842 14.245143607290975 0 0 0
2635 1 34.55396926184046 20.36685089082327 14.36309782906595 0 0 0
799 1 39.0105242293654 16.363122805845034 14.274599582236272 0 0 0
404 1 0.08398080889874399 1.8441041218154497 10.250103705615269 0 0 0
798 1 38.88521579667843 18.337782390626085 12.276985745868167 0 0 0
2631 1 30.56441580349096 20.363071647933406 14.275311229357444 0 0 0
797 1 36.95851856705611 16.398669730101595 12.275182729926717 0 0 0
408 1 4.278142404783873 1.9897575747955365 10.139716816189908 0 0 0
796 1 32.63051166620895 18.311902767700243 14.279076802494178 0 0 0
410 1 10.197500780878695 1.95844627814135 8.367913694949475 0 0 0
795 1 34.74874371716988 16.392596242838938 14.272422242159534 0 0 0
412 1 8.043174350559367 2.0767899084291375 10.160137153308229 0 0 0
2621 1 20.47770704719239 20.240324729382817 12.427824267521821 0 0 0
414 1 14.407796433304213 2.15289018775148 8.370202483061727 0 0 0
415 1 14.27048365071926 0.04497291795113747 10.225348003315046 0 0 0
416 1 12.344078381722198 1.9802802377348412 10.28533160334508 0 0 0
2613 1 12.188257989054682 20.449643132787042 12.330277022744719 0 0 0
2609 1 8.245704133215753 20.26846324836076 12.254071988921165 0 0 0
419 1 18.379987226719326 0.05570205702375752 10.283969900189005 0 0 0
420 1 16.474487040949754 2.088918365534706 10.21791381853272 0 0 0
2607 1 6.219006050950618 20.414378224935607 14.284219369566054 0 0 0
2603 1 2.136271997247481 20.41573173982433 14.332768814232823 0 0 0
794 1 34.71203307384036 18.441702270898457 12.254090177879666 0 0 0
424 1 20.406984019825156 2.1095927672106676 10.166715352395682 0 0 0
425 1 24.429131711678924 0.05687419420001283 8.220961849064237 0 0 0
426 1 26.591240903948748 1.9986799265085222 8.22258233782261 0 0 0
427 1 26.467565546042586 0.07429686098576226 10.406100680743453 0 0 0
428 1 24.4765768137479 2.0248793691032163 10.16574959694099 0 0 0
793 1 32.67420900062105 16.38589796401991 12.303036345744756 0 0 0
2601 1 0.07642980829242102 20.415194233303623 12.300962328425541 0 0 0
431 1 30.688767324598683 0.008816428992078426 10.156576566294781 0 0 0
432 1 28.6651430085123 2.016396139145578 10.07332521668295 0 0 0
433 1 32.794063560270594 0.08482776922682081 8.277149070170761 0 0 0
434 1 34.946832688021786 2.1783817646506707 8.242867106349873 0 0 0
435 1 34.80991129702306 0.019146714631030372 10.307468097016992 0 0 0
436 1 32.84069565842922 2.2277426064165358 10.303746957501568 0 0 0
437 1 36.813136777451206 0.0023843491248013646 8.235792748106443 0 0 0
438 1 38.8361310824915 2.0463327719790123 8.372237324373128 0 0 0
792 1 28.629842803832332 18.47604336544051 14.343003084711247 0 0 0
440 1 36.70845907262672 2.0825255120017014 10.213873985059317 0 0 0
441 1 0.08776937429273189 4.072089804743114 8.310001391072785 0 0 0
442 1 2.114769484346109 6.057894068288319 8.226845784450731 0 0 0
443 1 2.0801421567526606 3.976017236426995 10.190619975621567 0 0 0
444 1 40.88692171123032 6.077384954316542 10.130252841637663 -1 0 0
445 1 4.150349685272244 4.051637698103857 8.26178215803136 0 0 0
446 1 6.187658977000806 6.185928914097896 8.185880614473415 0 0 0
447 1 6.161507599092538 4.149008716703032 10.07343365247138 0 0 0