LAMMPS data file via write_data, version 2 Aug 2023, timestep = 10000, units = metal

4000 atoms
1 atom types

0 36.150000000000006 xlo xhi
0 36.150000000000006 ylo yhi
0 36.150000000000006 zlo zhi

Masses

1 63.55

Atoms # atomic

2419 1 32.69903018841504 17.952823670143534 7.223461890021961 0 0 0
2235 1 30.923838074942353 18.02421515623746 5.440730914205985 0 0 0
2227 1 23.559143693064435 17.928928252040205 5.468208872559336 0 0 0
4 1 0.04683867039186049 1.9057809038670699 1.717617881522249 0 0 0
400 1 32.55281386426967 16.160067685379722 5.429335323112112 0 0 0
8 1 3.6007365789027523 1.8395700473678454 1.7557460155552715 0 0 0
2413 1 21.69666261930443 17.968488987006907 7.21817550774405 0 0 0
43 1 1.8668159782016065 3.595069089959125 1.6748914758403657 0 0 0
2219 1 16.325735985397912 18.05910346299461 5.5169421511589745 0 0 0
201 1 35.904836194762325 0.19589994574833813 3.598685005161399 -1 0 0
202 1 1.7140884960705016 1.9493745069994448 3.573252609847064 0 0 0
205 1 3.6998983350171994 0.03392683131556194 3.5302846162949235 0 0 0
241 1 36.09852968242868 3.8063560714968974 3.41662115963556 -1 0 0
245 1 3.624792280672228 3.7575591286338716 3.4652562131132143 0 0 0
6 1 5.429958785873229 1.925525847522887 0.05793609359534091 0 0 0
7 1 5.442731557716488 0.0035033320033806773 1.7687992702300064 0 0 0
498 1 30.80791775774085 16.28916980581298 7.1957940852154065 0 0 0
12 1 7.327653424889668 1.800264392972945 1.7922742531708717 0 0 0
47 1 5.419518172936527 3.656052281281572 1.6694799041280979 0 0 0
49 1 7.237349149991977 3.553576713849029 0.09905770992183033 0 0 0
206 1 5.279311430023966 1.8940507384173804 3.5070261864933827 0 0 0
209 1 7.110673359993724 0.17404443980054307 3.6169289555754984 0 0 0
249 1 7.318060057918612 3.509981905782038 3.4995777341013046 0 0 0
2405 1 7.313042169974678 18.0554709514123 7.128481732946873 0 0 0
11 1 8.956119526593914 0.05378305435644727 1.860532282275928 0 0 0
2207 1 5.437627011117847 18.0681146249369 5.38269224718359 0 0 0
16 1 10.958289150316405 1.7854115350598712 1.712868724203451 0 0 0
51 1 9.081268199128235 3.68526107493822 1.8590615805567392 0 0 0
2403 1 3.742982215058342 18.06106997069583 7.141817680084525 0 0 0
210 1 9.188325434001545 1.7716115081413708 3.5744782892752505 0 0 0
396 1 28.913785595747576 16.221267252535746 5.604952584616291 0 0 0
253 1 10.985893824876761 3.5722329605892242 3.607367893755495 0 0 0
2203 1 1.8224284221039782 18.023020105838402 5.437444472802831 0 0 0
15 1 12.625865494606447 0.05329197761465664 1.7720574928818251 0 0 0
2237 1 32.437026344804934 18.04149195979869 3.6029053680130088 0 0 0
20 1 14.398305569484624 1.8287191854858584 1.760376605516028 0 0 0
55 1 12.636423209739155 3.659422271268286 1.7603949979044804 0 0 0
2039 1 34.28894080823211 18.03967349262423 1.776900017552424 0 0 0
214 1 12.625910907680794 1.806140915110415 3.7010742316927283 0 0 0
217 1 14.3985999245533 0.06642135211760221 3.536297178009781 0 0 0
257 1 14.429720384690375 3.6774912602564696 3.700640785871765 0 0 0
2035 1 30.61280438867745 18.00775484185933 1.7531788420281071 0 0 0
19 1 16.26048082944989 0.016191772265989317 1.6180654002310382 0 0 0
59 1 16.25939539984097 3.6999587342634834 1.814178887726742 0 0 0
218 1 16.104390586524467 1.8333931253369198 3.5251523150060655 0 0 0
2031 1 27.049099512673866 17.979044251256823 1.8436118149283958 0 0 0
2229 1 25.293438674144817 17.91032095202265 3.6826981625366373 0 0 0
23 1 19.968841795395388 0.06248401198633877 1.8304018758167966 0 0 0
24 1 18.022569262736788 1.848679227430545 1.8164019753902123 0 0 0
2221 1 18.096706047009736 18.02890958106525 3.7124199617383895 0 0 0
28 1 21.630574404658365 1.7397977229984471 1.624840749678523 0 0 0
2025 1 21.770639055167504 17.98304006000421 0.1005153297229221 0 0 0
63 1 19.777000628220414 3.5652061620348245 1.7403057033997633 0 0 0
2023 1 19.895085922028752 17.974353614346903 1.8752206642565517 0 0 0
2013 1 10.98381005101692 17.903537123842835 0.025320648027892283 0 0 0
222 1 19.90438301393508 1.8728850884642188 3.6490685637198914 0 0 0
392 1 25.531410729650535 16.12875138394416 5.482665198229573 0 0 0
261 1 18.040093265314695 3.624739057363308 3.590137217998321 0 0 0
265 1 21.699161407062316 3.4215742285276383 3.483479313842742 0 0 0
26 1 23.578519817281144 1.7488060715503242 0.02565085164732833 0 0 0
2011 1 9.112648679006451 18.051121515811456 1.8667312399219544 0 0 0
388 1 21.75984304407698 16.127404364640412 5.486262650478981 0 0 0
32 1 25.384923832346413 1.6998550280577187 1.7475213317168337 0 0 0
67 1 23.51810853082119 3.5305041010578426 1.7369197394246259 0 0 0
2007 1 5.486278345733825 18.045725370449237 1.7912610139539722 0 0 0
226 1 23.68204244882768 1.827518117850968 3.555382051733746 0 0 0
384 1 18.108083218978376 16.239103425529606 5.525243082696036 0 0 0
269 1 25.30448653363735 3.614564333029834 3.555697203585698 0 0 0
2205 1 3.515549907208296 17.97383586134198 3.5748228085209512 0 0 0
490 1 16.125483522926036 16.267515971151735 7.142835145899375 0 0 0
488 1 12.61572126614275 16.441193150262368 7.151462713882017 0 0 0
36 1 28.97528687525793 1.8621735117620084 1.7625661046521293 0 0 0
71 1 27.167083728293324 3.5952533816622427 1.861818042446204 0 0 0
73 1 28.798872037621003 3.5338053550986865 0.04798872896116853 0 0 0
230 1 27.19052170820884 1.722528482019246 3.64062317550651 0 0 0
380 1 14.43418094995376 16.33630089738183 5.421225036824287 0 0 0
273 1 28.916293247216995 3.641945263263584 3.699099130553698 0 0 0
2001 1 36.11930164647981 17.943946170458112 0.08040486583310986 -1 0 0
478 1 30.78586554958242 12.689048825746612 7.1660907065061155 0 0 0
75 1 30.77606504993236 3.68955846528528 1.9517625612940344 0 0 0
234 1 30.66566011641493 1.831980866441607 3.668651146370936 0 0 0
37 1 32.50535870245271 0.009491089058480237 0.11558772536500973 0 0 0
395 1 30.779116035431798 14.462249716692869 5.430479367519247 0 0 0
39 1 34.28019287617199 0.17310261129988225 1.7891478894480202 0 0 0
40 1 32.46233788647077 1.8415953294273955 1.7659889777602409 0 0 0
391 1 27.225745168968363 14.332744917040785 5.544525199301643 0 0 0
79 1 34.33496078447223 3.5889719244419322 1.6582971914246085 0 0 0
237 1 32.499817666566244 0.13543789522931027 3.6559094157656635 0 0 0
238 1 34.29492485494295 2.0476537517230526 3.6403104666134127 0 0 0
277 1 32.45973789937439 3.6684047463845824 3.7160794394319336 0 0 0
356 1 28.94957985143713 12.692817699492089 5.449330756776691 0 0 0
44 1 36.12476053389106 5.367258417927136 1.642000636739871 -1 0 0
48 1 3.610550260861874 5.393970326264247 1.5940003037821495 0 0 0
81 1 0.06556040658103596 7.19554608579669 0.14430336679908823 0 0 0
83 1 1.6393788013384671 7.323423691524934 1.870880101843745 0 0 0
387 1 23.647287651144065 14.440725648382568 5.481093231643958 0 0 0
242 1 1.7450195211480606 5.446115237569623 3.5961155698026457 0 0 0
281 1 36.03246587815139 7.28172078314846 3.638419662246771 -1 0 0
285 1 3.5859492803171222 7.1926727224536675 3.4562908554102765 0 0 0
352 1 25.30489080332916 12.620549154083346 5.595485690210012 0 0 0
52 1 7.210375758913232 5.473248750409367 1.7312886312516127 0 0 0
87 1 5.487875317428661 7.354263225058101 1.748205666488821 0 0 0
491 1 18.05347998269252 14.525898241580231 7.1589884468685305 0 0 0
246 1 5.382593565454973 5.364954801771898 3.6706616333243685 0 0 0
289 1 7.112768344216115 7.1600781514174 3.7577524004259226 0 0 0
383 1 19.90557245921212 14.425920934497364 5.392125858327122 0 0 0
56 1 10.810272723157956 5.441929677734598 1.8763958739005495 0 0 0
91 1 9.07518393660792 7.160676626512317 1.7699223588587805 0 0 0
348 1 21.72723729721287 12.811757852378042 5.605415404440786 0 0 0
250 1 9.07024950294205 5.3697345830781344 3.704735962162992 0 0 0
293 1 10.868007409170133 7.227250637470236 3.6775575830064975 0 0 0
344 1 18.10455328085816 12.685285679915877 5.585823403662737 0 0 0
60 1 14.518735696580942 5.390891915025969 1.7399246768763303 0 0 0
95 1 12.710461629862166 7.130465737763229 1.7626233059749248 0 0 0
97 1 14.483450921284765 7.189902681012854 0.054081108949169135 0 0 0
254 1 12.714558535764466 5.452385329395653 3.627206471260858 0 0 0
297 1 14.513927117054076 7.114259573145799 3.6842445946787885 0 0 0
379 1 16.159141296811544 14.295398225928547 5.523833710286912 0 0 0
99 1 16.27105550975323 7.264170528277682 1.8039752731889902 0 0 0
258 1 16.293911787161054 5.4650145387399425 3.7184988239860406 0 0 0
375 1 12.60914569886846 14.389174079353571 5.282567475211803 0 0 0
64 1 18.043329779997208 5.40900180340856 1.729126572957173 0 0 0
68 1 21.698856230978215 5.312952456765589 1.7591531978578487 0 0 0
340 1 14.390749240894438 12.657245161462797 5.692787025163545 0 0 0
103 1 19.823119008816686 7.073724619169341 1.7436147424834465 0 0 0
487 1 11.010797051057367 14.53791616294022 7.181637022197268 0 0 0
262 1 19.900182398344842 5.3524222885969035 3.4825720155836577 0 0 0
301 1 18.295293146039516 7.245947700358247 3.6085119170251936 0 0 0
305 1 21.72399946401737 7.369769955653679 3.631823442337255 0 0 0
466 1 9.184391156656087 12.600305680845906 7.209836212442443 0 0 0
72 1 25.256962914369684 5.36335278713148 1.7566439243778447 0 0 0
107 1 23.581886488394055 7.190499087392435 1.723902392120646 0 0 0
371 1 9.155223736021282 14.390008847989263 5.365224444580532 0 0 0
266 1 23.502084190826547 5.355538614577522 3.4573264411747284 0 0 0
309 1 25.297525188007974 7.16890753716441 3.5373423210216783 0 0 0
70 1 27.203057955007854 5.378918263536276 0.046490400981126154 0 0 0
76 1 28.946608242686615 5.499980493916875 1.8519564414035967 0 0 0
111 1 27.097377228653624 7.184531692765564 1.8338000243656065 0 0 0
336 1 10.92119588415163 12.645175893811743 5.442733324822575 0 0 0
270 1 27.082455212043858 5.464791465290438 3.5662334347966747 0 0 0
313 1 28.938654357497573 7.346071721940994 3.680787271923947 0 0 0
367 1 5.549964964366768 14.362844139453044 5.421451674114524 0 0 0
115 1 30.687073552252826 7.204366782305148 1.8716120766940407 0 0 0
274 1 30.699368981623117 5.498604828269927 3.6618844550140732 0 0 0
332 1 7.26944045264409 12.633897045917918 5.5521333541561795 0 0 0
80 1 32.40569339959818 5.498599144791375 1.7648046740706702 0 0 0
117 1 32.424972948073545 7.235964230999661 0.06260387159420008 0 0 0
119 1 34.30934806279452 7.17390331357981 1.6595441197067875 0 0 0
278 1 34.34149719733886 5.410928162427909 3.522510565359532 0 0 0
317 1 32.58834422001644 7.237757383041237 3.6864981233423957 0 0 0
82 1 1.8036311843896653 9.09925277286618 0.07074890181645896 0 0 0
84 1 36.094120217289564 9.135081924409928 1.9050158490563909 -1 0 0
88 1 3.6384361384598365 9.042973342795213 1.837913825710328 0 0 0
121 1 0.07208971550966214 10.815218037764547 0.0957077434560146 0 0 0
123 1 1.815140661181388 10.817972746827976 1.9601985075682762 0 0 0
125 1 3.7021573259289258 10.739030130695582 0.07560943005608156 0 0 0
282 1 1.7717789999161542 9.139183098989346 3.607217388525852 0 0 0
321 1 36.062136277962956 10.972943903379086 3.6657732675887296 -1 0 0
325 1 3.5999308964285883 10.941396838712421 3.727534291920762 0 0 0
86 1 5.513686255182152 9.1272591702711 0.06322586375343305 0 0 0
92 1 7.309253606138316 9.043018265656785 1.8643764182327265 0 0 0
127 1 5.550194476462348 10.851860490392188 1.7965666507130216 0 0 0
363 1 1.7707413252172308 14.499657633413474 5.270743066304408 0 0 0
286 1 5.331886233692969 8.985684548127487 3.6582651005925424 0 0 0
329 1 7.213485509829857 10.93084361756543 3.592116264457372 0 0 0
90 1 9.071419039482215 9.000547613303086 0.030736220543229286 0 0 0
96 1 10.90496805335013 8.846561122714773 1.9013349707212268 0 0 0
131 1 9.089684575888983 10.799352051734372 1.8294540870462253 0 0 0
133 1 10.821868440041971 10.842071163916637 0.10160035641802659 0 0 0
290 1 8.966387343132975 9.014880966414628 3.627858324356014 0 0 0
333 1 10.748252281972025 10.805196906777091 3.645732447492114 0 0 0
94 1 12.633368598048497 9.104056106996556 0.01621331527465969 0 0 0
100 1 14.403697757739957 9.119331144287777 1.899186388046615 0 0 0
135 1 12.6161247967165 10.81264488409218 1.8300912643687912 0 0 0
137 1 14.495490553586658 10.784792293098455 0.08133574415438301 0 0 0
294 1 12.665277820203526 8.988664641264974 3.6240781928539483 0 0 0
337 1 14.406112548211487 10.758044844105008 3.716939830082703 0 0 0
98 1 16.253409288786514 9.120301102229442 0.09257204055559386 0 0 0
139 1 16.421090272537906 10.831866648359 1.9160637443086488 0 0 0
298 1 16.28780842573584 9.080355256083994 3.6332353874359495 0 0 0
102 1 19.87594947389609 8.980973863641363 0.021056473109902968 0 0 0
104 1 18.1485971777578 8.990675071770347 1.7098763230123684 0 0 0
108 1 21.65241315332321 8.993386960532337 1.7580569663595405 0 0 0
141 1 18.009226830575855 10.886460650896332 0.05172145627188114 0 0 0
143 1 19.864731767533826 10.764120008645596 1.8308718665835744 0 0 0
145 1 21.59997558587757 10.866731911559556 0.07035398293085875 0 0 0
302 1 19.94662293533938 9.137553746821098 3.5971771022011434 0 0 0
341 1 18.174559420424202 10.805672526090811 3.6418249122189565 0 0 0
345 1 21.76948660977424 10.940069060348554 3.580611410480511 0 0 0
328 1 3.6122073856852306 12.724200387964315 5.501679307722229 0 0 0
112 1 25.259630598084243 8.995733262611166 1.6530844679307952 0 0 0
147 1 23.524674984467385 10.901489021497738 1.7310718629786974 0 0 0
324 1 0.02303862705385238 12.613576672185186 5.460411052467443 0 0 0
306 1 23.520437952946164 8.953644741004803 3.591761703158157 0 0 0
349 1 25.34466996902271 10.762071320701963 3.613158872269479 0 0 0
460 1 34.35272126002842 9.110315298396959 7.225870015647525 0 0 0
116 1 28.985577488572073 9.070771492570701 1.7617485541484246 0 0 0
151 1 27.19119173368589 10.778634452640514 1.758945290817822 0 0 0
359 1 34.331366062173004 10.831410223632217 5.488280212112513 0 0 0
310 1 27.157660722481193 9.05822705677819 3.5721340940503574 0 0 0
353 1 28.98237555673123 10.829556335919882 3.630163497012759 0 0 0
320 1 32.57246759783868 9.068575409901541 5.381498370292363 0 0 0
155 1 30.66372428541745 10.717474782890907 1.8151464014149599 0 0 0
314 1 30.816536407063357 8.978276369938106 3.7128230473786368 0 0 0
458 1 30.68943427809974 9.002786905098953 7.198894293951644 0 0 0
120 1 32.543913203037 8.945374482439123 1.8473641245644805 0 0 0
157 1 32.56122610198877 10.837557219791693 0.05993374165057629 0 0 0
159 1 34.266092774790565 10.785683930731727 1.7363207109383088 0 0 0
318 1 34.29652231811726 9.05556090633687 3.68066313603597 0 0 0
357 1 32.51142829112368 10.86272707107027 3.5599655883269414 0 0 0
122 1 1.780153581898571 12.567035432066888 0.13915776537892088 0 0 0
124 1 0.015469462562744332 12.7126129783455 1.9033142210408023 0 0 0
128 1 3.600759902846395 12.640912980860678 1.7382509734790859 0 0 0
161 1 0.09946137085625474 14.445872478144828 0.05669888914789507 0 0 0
163 1 1.9133906250035615 14.444757991528768 1.779915111591814 0 0 0
165 1 3.549667747830706 14.4878827369339 0.07194737503435723 0 0 0
322 1 1.7987014099094252 12.623069498138412 3.7198759855114067 0 0 0
361 1 0.005681982195182237 14.517525266390537 3.659975953284336 0 0 0
365 1 3.7239673574184513 14.42859916989692 3.6421057321402537 0 0 0
355 1 30.633194242247285 10.872331001789087 5.495657123156992 0 0 0
132 1 7.339201363182784 12.702797503088565 1.8586772322506808 0 0 0
167 1 5.252515010881757 14.464894394977009 1.7329179258264136 0 0 0
351 1 27.085630100883762 10.917117255739738 5.41425955609142 0 0 0
326 1 5.546652661668632 12.661039932158573 3.713285504331083 0 0 0
369 1 7.24631577272208 14.42550587443175 3.610277948702308 0 0 0
316 1 28.986039330990202 9.103905867286587 5.405029492142286 0 0 0
136 1 10.834982735520668 12.638305575202697 1.7664702385539188 0 0 0
171 1 9.049140447957143 14.456692582549739 1.7298938863763411 0 0 0
173 1 10.839630930603013 14.59428172495054 0.12257434630259566 0 0 0
330 1 9.016678934109773 12.594849707795275 3.525803485611109 0 0 0
373 1 10.843180705386002 14.405573847095935 3.5528861896283526 0 0 0
134 1 12.61799038032607 12.696098895486784 0.07009847329908672 0 0 0
140 1 14.502595099636219 12.530088752304827 1.9772195091248959 0 0 0
175 1 12.71362913130001 14.39369853093967 1.7422711375849436 0 0 0
177 1 14.450358724805007 14.308526988288552 0.2146593388391705 0 0 0
334 1 12.519644123029886 12.607434022828716 3.595900413627365 0 0 0
377 1 14.422547836526514 14.391055635049687 3.58128412509934 0 0 0
138 1 16.291299416792203 12.779394953896078 0.10112161282287234 0 0 0
179 1 16.32884009740646 14.485389361278507 1.9743172748774198 0 0 0
338 1 16.28057639780595 12.57748745809293 3.7431840615245453 0 0 0
142 1 19.880878635777552 12.671553191497463 0.07015465528235107 0 0 0
144 1 18.148043384439987 12.707720567707083 1.948752622224367 0 0 0
148 1 21.676393405334196 12.53594599461703 1.7692394856070055 0 0 0
181 1 18.06937345746132 14.421558931408311 0.07560100531660789 0 0 0
183 1 19.845353032610085 14.312186709407419 1.945935849453571 0 0 0
185 1 21.615829870282415 14.349624400216598 0.1315844862619167 0 0 0
342 1 19.918170387106105 12.531072056950835 3.7480815737477498 0 0 0
381 1 18.002326839455876 14.408002222367113 3.7230208788058285 0 0 0
385 1 21.702781760266227 14.31933352143164 3.6227563159877687 0 0 0
347 1 23.501352402902626 10.953794956086599 5.461701387722715 0 0 0
152 1 25.45234383023994 12.532657069423607 1.8327784486619958 0 0 0
187 1 23.456414070245724 14.327586148931957 1.7869876047107813 0 0 0
189 1 25.24416742151105 14.433747989435867 0.007689707347491373 0 0 0
346 1 23.5686704695811 12.642605100154547 3.7012535874628867 0 0 0
389 1 25.312256890455537 14.416279567538995 3.567867740237353 0 0 0
312 1 25.286816193376097 9.025804688061415 5.371496172543365 0 0 0
156 1 28.881242561501587 12.69242049022909 1.7311131481311561 0 0 0
191 1 27.10132267871467 14.43767931196267 1.816821776829105 0 0 0
193 1 28.93409378846967 14.452048597546682 0.03080073722357158 0 0 0
350 1 27.128481619575794 12.642332607229916 3.700918653082213 0 0 0
393 1 28.97280193178187 14.43347874980469 3.5771292003139927 0 0 0
154 1 30.649271325735008 12.589126990845207 0.0733090521417894 0 0 0
195 1 30.733260108731486 14.613466041079096 1.7265636681362866 0 0 0
354 1 30.815645537896582 12.632329533513209 3.655984596462822 0 0 0
158 1 34.41914245929707 12.60910817665937 0.04461861619374412 0 0 0
160 1 32.41801974514238 12.656251780866139 1.7457093515418272 0 0 0
452 1 19.922061844277174 8.995594646021516 7.117308249651362 0 0 0
199 1 34.368532163647835 14.395426603340065 1.6810108298234208 0 0 0
358 1 34.39776319044707 12.707523142979598 3.5747841998882492 0 0 0
397 1 32.48333992772393 14.573410994402945 3.5189674419268293 0 0 0
162 1 1.9285549776613757 16.27223184949734 0.03981990094160611 0 0 0
164 1 0.07784111743134005 16.214358999016255 1.7935164235685517 0 0 0
168 1 3.5814129284999807 16.236914445491998 1.7938352453081987 0 0 0
362 1 1.8259904503923494 16.276120807111628 3.64872109261908 0 0 0
343 1 19.921445759092567 10.766689745994968 5.467052450800918 0 0 0
172 1 7.2435533228737405 16.18598020460668 1.8830631560508095 0 0 0
366 1 5.538182647520691 16.176022437646047 3.6629862227049674 0 0 0
170 1 9.076173516751648 16.42680425660642 0.04157199817521789 0 0 0
176 1 10.966218165595123 16.383850369925703 1.9650880596870641 0 0 0
370 1 9.150626027553045 16.268311627506954 3.5487559128486392 0 0 0
174 1 12.722336003266166 16.366414968058553 0.04821710885914413 0 0 0
180 1 14.465476118903105 16.308621547640026 1.8818688061492481 0 0 0
374 1 12.649942186439729 16.38226345168109 3.6234898210003963 0 0 0
178 1 16.28169204368381 16.138787486512413 0.0035729400717551636 0 0 0
378 1 16.243872557677694 16.11962576024821 3.7812822295242468 0 0 0
182 1 19.80157434378406 16.149667783093548 0.12983392533596216 0 0 0
184 1 18.05720312835512 16.2242701187611 2.022799328334537 0 0 0
188 1 21.744549155736316 16.271621518230432 1.8989804965945911 0 0 0
382 1 19.915322092442437 16.25579385149563 3.756462395286725 0 0 0
186 1 23.36842148011317 16.17188602123142 0.002251731949396481 0 0 0
192 1 25.298788503183992 16.141115849162077 1.807915265761747 0 0 0
386 1 23.501244292281463 16.09810632559091 3.720391034657506 0 0 0
308 1 21.738619171927617 8.955547903349597 5.5491699727181505 0 0 0
196 1 28.830085518902326 16.366079623181392 1.7634546774509143 0 0 0
390 1 27.196134285320937 16.13951687867209 3.617846903357931 0 0 0
194 1 30.67730234687557 16.200636337773673 0.012986461500632977 0 0 0
394 1 30.75977921765257 16.26486167948818 3.5905669709588355 0 0 0
198 1 34.2031678739095 16.30398764262196 0.018692886686593302 0 0 0
200 1 32.62677788285124 16.196632909925626 1.772043874748363 0 0 0
398 1 34.310939428082456 16.41498194027217 3.60772023820938 0 0 0
203 1 1.6109077233235072 0.03958193248465261 5.347675068001281 0 0 0
204 1 0.07936656926936586 1.9931035264756034 5.414710849719926 0 0 0
208 1 3.609181719982879 1.8138393988588792 5.226809688416233 0 0 0
243 1 1.819290890995962 3.7414940860307992 5.341141686789261 0 0 0
401 1 36.014487772916276 0.15237560675681303 7.111911315230337 -1 0 0
402 1 1.828038885228772 1.8966988455045468 7.175071260489631 0 0 0
376 1 10.827363064059671 16.442733156345373 5.366876358105591 0 0 0
304 1 18.130322749446858 8.974031169802352 5.354746946413124 0 0 0
423 1 3.5898266915817567 3.613431554201037 7.191759029197893 0 0 0
207 1 5.339221641977137 0.12365035814399677 5.487764620620497 0 0 0
212 1 7.179030275518634 1.8039132259239479 5.478974493372272 0 0 0
247 1 5.400336220098885 3.475918077610012 5.393892237604158 0 0 0
339 1 16.230653132114007 10.769214249842571 5.448755826650658 0 0 0
335 1 12.58621163446584 10.858168576068369 5.461210686175173 0 0 0
300 1 14.406789825864713 8.939821352826543 5.4273149394823115 0 0 0
484 1 5.4561442946392935 16.255782402256674 7.115527766846656 0 0 0
216 1 10.914988558562147 1.6479268248109726 5.437282256170017 0 0 0
251 1 9.133179116727653 3.5638980362370627 5.471768133944196 0 0 0
406 1 9.194920630709369 1.7964367799018337 7.171785151790275 0 0 0
372 1 7.415233096841185 16.300125461773458 5.458782764344498 0 0 0
467 1 10.787309919124885 10.707974904843086 7.150815971073091 0 0 0
482 1 1.9630403575604232 16.23881652881558 7.116771441077667 0 0 0
220 1 14.428347775529048 1.8077804756843763 5.509449246112082 0 0 0
255 1 12.674434748384028 3.702062261342634 5.447959497516042 0 0 0
408 1 12.637084156454081 1.785418278475554 7.205482444298673 0 0 0
368 1 3.77522279751908 16.18845005134745 5.344911913570308 0 0 0
446 1 8.914153932138186 9.102960421838771 7.201294996401714 0 0 0
219 1 16.18019492120221 0.2366566333291441 5.32127192005396 0 0 0
259 1 16.246966381568832 3.4760319729789106 5.406030448634038 0 0 0
410 1 16.377045850576092 1.8036033071170228 7.196962117551161 0 0 0
364 1 36.06594088318448 16.232810229277554 5.421940821627438 -1 0 0
224 1 18.25920015166734 1.8692238114348223 5.268367593854712 0 0 0
228 1 21.68847967403377 1.8009000182711226 5.325212621169058 0 0 0
263 1 20.013202029468427 3.7784627617749766 5.3757203726150955 0 0 0
411 1 18.083363118284804 0.007608186513644598 7.1793305292077525 0 0 0
412 1 20.002963394662768 1.8338670227566993 7.116605655537622 0 0 0
331 1 8.979972330820093 10.838002745621479 5.393128600722228 0 0 0
431 1 18.08556393668925 3.558947235526211 7.1598930403605126 0 0 0
296 1 10.818645281022594 8.941621082318912 5.373603691837396 0 0 0
480 1 34.428417654863296 12.630264548900193 7.157153128123884 0 0 0
232 1 25.28828915300745 1.8666845378898098 5.290173850160566 0 0 0
267 1 23.467737470884018 3.601653634957138 5.3154945503275615 0 0 0
414 1 23.384219349094707 1.8288892938216008 7.219949340782903 0 0 0
444 1 5.356572804644904 9.151580866685944 7.114642517881292 0 0 0
327 1 5.484364741915221 10.928111809075448 5.46942270139272 0 0 0
231 1 27.05316699061945 0.083702872195541 5.329148255277709 0 0 0
236 1 28.87644291083611 1.7357289226273225 5.4327268041807955 0 0 0
271 1 27.12958835245699 3.6347915796988803 5.500299172670952 0 0 0
416 1 26.967736885597752 1.798949984824519 7.139671120154811 0 0 0
399 1 34.45069978656327 14.531777442423264 5.484491096778196 0 0 0
437 1 28.96413554480828 3.698645394804061 7.206792399020033 0 0 0
235 1 30.670801278412423 0.029753329091512987 5.3453324008470755 0 0 0
275 1 30.62406203122456 3.7400491575835666 5.397478354503175 0 0 0
292 1 7.187630853105403 9.037583920328363 5.443113896594897 0 0 0
239 1 34.22716850611274 0.11057396192706492 5.448584675112936 0 0 0
240 1 32.510083002862594 1.9209077529309229 5.47104127735365 0 0 0
279 1 34.39564168015961 3.675929548416989 5.417992658480835 0 0 0
360 1 32.66147463845449 12.67995829404729 5.434450510465194 0 0 0
420 1 34.17546689225887 1.7931884062433339 7.134364354486914 0 0 0
439 1 32.427423201377 3.64249955855133 7.2243754867358545 0 0 0
244 1 36.01716657101965 5.430290609798779 5.441624908377425 -1 0 0
248 1 3.5507545015876 5.37949484023502 5.608323084489042 0 0 0
283 1 1.723354953018335 7.07966312974093 5.431583135295945 0 0 0
422 1 1.6916374336418545 5.3836418550073635 7.200731347659022 0 0 0
441 1 35.98943093468826 7.280398462507826 7.171515588429122 -1 0 0
443 1 3.5144393983524718 7.296013727458288 7.155614354559396 0 0 0
252 1 7.189730802173602 5.173317378206246 5.492333272259887 0 0 0
287 1 5.25940869424702 7.177297937761426 5.439501554815948 0 0 0
323 1 1.76258435223873 10.886600163727373 5.418671867416155 0 0 0
445 1 7.161980400302539 7.257800943356982 7.175006779086523 0 0 0
256 1 10.747263036898914 5.4185331237089205 5.407510333562407 0 0 0
291 1 8.948124368579853 7.163223966682381 5.431816944254718 0 0 0
288 1 3.4527419792512677 9.11267130705671 5.453110285524573 0 0 0
447 1 10.647270967511982 7.278743272124586 7.186034650631159 0 0 0
260 1 14.485943861691046 5.530562477302106 5.476480443403503 0 0 0
295 1 12.615489139914313 7.094397886682455 5.561578342865607 0 0 0
284 1 36.12555507514418 9.040297185340517 5.320164965389163 -1 0 0
319 1 34.28234301349283 7.228078421971243 5.421068429343191 0 0 0
299 1 16.282398571797827 7.329996567236921 5.624601258475309 0 0 0
430 1 16.340854326119025 5.258812184299479 7.155434353086662 0 0 0
264 1 18.107958810189526 5.429269086213902 5.384657592242247 0 0 0
268 1 21.72797779995068 5.505849513406053 5.372257287123921 0 0 0
303 1 19.990337304531458 7.248284004850305 5.405811981724206 0 0 0
432 1 19.91311316243063 5.536002236775683 7.123552764125114 0 0 0
280 1 32.629554792100656 5.412046075770316 5.492399967787648 0 0 0
438 1 30.750164730032456 5.5494512392306765 7.2144438065325724 0 0 0
272 1 25.41568250950444 5.419010447321226 5.341826276230844 0 0 0
307 1 23.556260507102653 7.217215045001075 5.330652613478615 0 0 0
434 1 23.56750264497207 5.547521970670682 7.206247514797796 0 0 0
315 1 30.706572667527066 7.212703081320661 5.439925163822191 0 0 0
276 1 28.850157997429662 5.40515363993897 5.340923447906274 0 0 0
311 1 27.131522887877765 7.330901570677656 5.567958722448326 0 0 0
501 1 1.716610798660987 0.11636530457992374 9.067165582285707 0 0 0
502 1 36.11001886990335 1.9171074804240469 8.859159004255178 -1 0 0
504 1 3.656757211883509 1.8383085672452517 8.998333552888443 0 0 0
521 1 1.805767055054832 3.647124330689807 9.014795405293418 0 0 0
601 1 36.06561427409514 0.1373212788628181 10.922542679121511 -1 0 0
602 1 1.7650372403115424 1.7192144023228737 10.936447525644125 0 0 0
900 1 34.470816707690446 16.250712611580752 14.321882085446333 0 0 0
641 1 36.079672342332245 3.51119224039606 10.734717942453905 -1 0 0
645 1 3.6774677436566714 3.605216646464194 10.837660357717205 0 0 0
503 1 5.521214519555015 0.035681786778009573 9.031941202709143 0 0 0
506 1 7.407302284947406 1.8007165849489648 9.082258879164709 0 0 0
523 1 5.401752283213348 3.6217575207852897 9.038122396062837 0 0 0
606 1 5.519964945122647 1.7806495903066335 10.859648995747236 0 0 0
800 1 32.58628459768404 16.340535781351573 12.675616831941744 0 0 0
649 1 7.279510416000631 3.537689474559674 10.940586462014725 0 0 0
505 1 9.059817336254126 0.0011539551720825246 9.009739791762353 0 0 0
508 1 10.919322670649693 1.8435374373679623 9.011920164579474 0 0 0
525 1 9.024849336462543 3.5715341870640476 9.01300518577356 0 0 0
610 1 9.076315588620778 1.701565751597672 10.733914387227998 0 0 0
2635 1 30.79287387798725 17.960622219340127 12.629117689282651 0 0 0
653 1 10.864182690440627 3.500413067996056 10.822250593867633 0 0 0
507 1 12.665781508805074 0.055328102202979686 8.965980922260918 0 0 0
510 1 14.432318390528868 1.7220190219486435 9.095900186068844 0 0 0
527 1 12.776930632758466 3.612591332015867 9.177929202162625 0 0 0
614 1 12.63611458764581 1.845322590221865 10.821967296855256 0 0 0
896 1 27.140935777392272 16.264203157277194 14.435959857305198 0 0 0
657 1 14.435307319861819 3.664180024451264 10.88985976320854 0 0 0
796 1 28.930259844692774 16.320715727994493 12.726121516551068 0 0 0
529 1 16.261257250941632 3.5665042181599436 9.090387723960623 0 0 0
618 1 16.178673052354956 1.7358399372008317 10.83394845954817 0 0 0
511 1 19.947550909693042 0.05571396953750964 8.866364471843466 0 0 0
512 1 18.199025489765557 1.836212977997017 8.948120994725013 0 0 0
514 1 21.667141570395398 1.8192926683736257 8.977179079362537 0 0 0
531 1 19.911080688225613 3.631788737552473 8.977888921605077 0 0 0
2619 1 16.16180209751046 18.04856408432602 12.657687834337048 0 0 0
622 1 19.83593820072819 1.9790353625805632 10.835206627399781 0 0 0
792 1 25.36497671036655 16.464527075656488 12.713803865951482 0 0 0
661 1 18.06194484817213 3.728407632741307 10.761757505625177 0 0 0
665 1 21.698233273359648 3.5389529937864297 10.832832530470094 0 0 0
892 1 19.84767670390459 16.440742676744055 14.447222006968891 0 0 0
516 1 25.30753828228156 1.7745936730757124 9.034783911540623 0 0 0