LAMMPS data file via write_data, version 7 Aug 2019, timestep = 300000

4322 atoms
12 atom types
3921 bonds
11 bond types
7080 angles
19 angle types
7197 dihedrals
16 dihedral types

-1.3262881510000000e+00 3.5064357051999998e+01 xlo xhi
-1.3262881510000000e+00 3.5064357051999998e+01 ylo yhi
-1.3262881510000000e+00 3.5064357051999998e+01 zlo zhi

Masses

1 6.94
2 14.0067
3 32.064
4 15.9994
5 12.0112
6 18.9984
7 12.0112
8 1.00797
9 15.9994
10 1.00797
11 15.9994
12 12.0112

Pair Coeffs # lj/cut/coul/long

1 4.735 2.839
2 0.167 3.50123
3 0.0429759 3.36775
4 0.228 2.85978
5 0.16 3.47451
6 0.0687685 3.08081
7 0.039 3.87541
8 0.038 2.44997
9 0.228 2.85978
10 0 0
11 0.228 2.85978
12 0.039 3.87541

Bond Coeffs # harmonic

1 228 1.784
2 496 1.78
3 228 1.8
4 496 1.363
5 322.716 1.526
6 340.618 1.105
7 273.2 1.425
8 384 1.42
9 540.634 0.96
10 322.716 1.526
11 340.618 1.105

Angle Coeffs # harmonic

1 50 120.165
2 70 109.55
3 50 119.91
4 70 109.313
5 50 108.519
6 70 108.981
7 50 109.29
8 44.4 110
9 70 109.5
10 39.5 106.4
11 57 109.5
12 70 109.5
13 57 109.5
14 58.5 106
15 60 109.5
16 44.4 110
17 39.5 106.4
18 44.4 110
19 70 109.5

Dihedral Coeffs # harmonic

1 0.0467 1 3
2 0.0467 1 3
3 0.0467 1 3
4 0.0467 1 3
5 0.1581 1 3
6 0.1581 1 3
7 0.1581 1 3
8 0.1581 1 3
9 0.13 1 3
10 0.13 1 3
11 0.13 1 3
12 0.13 1 3
13 0.1581 1 3
14 0.1581 1 3
15 0.1581 1 3
16 0.13 1 3

Atoms # full

1305 82 5 7.7500000000000002e-01 3.1769082288769805e+00 1.2293706475300061e+00 3.1218030620781440e-01 0 0 0
1306 82 6 -2.7500000000000002e-01 2.7736924906426417e+00 4.1665111562090501e-01 1.3453371861219185e+00 0 0 0
1308 82 6 -2.7500000000000002e-01 2.5184691940211281e+00 2.4070564301140092e+00 2.9750207262762701e-01 0 0 0
385 25 1 0.0000000000000000e+00 -3.7357371303025980e-02 1.1923528974215969e+00 1.2201424692643839e+00 0 0 0
1301 82 4 -3.3860000000000001e-01 1.2089863306275028e+00 -5.0550428614602316e-01 -6.0334949153373563e-01 0 0 0
2543 159 6 -2.7500000000000002e-01 1.1097902648802531e+00 -7.0636123945755624e-01 3.0750925141400138e+00 0 0 0
1299 82 3 9.0269999999999995e-01 2.6832235086192537e+00 3.1806718233649617e-01 -1.0960832292742859e+00 0 0 0
2530 159 2 -3.5099999999999998e-01 -4.8268155108243271e-01 1.3392256423433830e+00 4.2664252881322451e+00 0 0 0
2532 159 3 9.0269999999999995e-01 5.0488693069617774e-01 3.3524186191246685e-01 5.2603083335667362e+00 0 0 0
2544 159 6 -2.7500000000000002e-01 2.8400991141127943e+00 -2.1846948843029740e-01 4.4569610997022728e+00 0 0 0
2534 159 4 -3.3860000000000001e-01 1.6058436162734515e+00 1.3199367779965656e+00 6.2438520184081199e+00 0 0 0
2541 159 5 7.7500000000000002e-01 1.5664465715881644e+00 -6.8324744374144719e-01 4.3329723745984117e+00 0 0 0
2535 159 4 -3.3860000000000001e-01 -5.1314657884158776e-01 -6.7480567826319704e-01 6.2883533749702201e+00 0 0 0
2056 129 4 -3.3860000000000001e-01 1.9925888538607115e+00 -1.0188072144564841e+00 7.1372510034840229e+00 0 0 0
2529 159 1 0.0000000000000000e+00 2.2667098560561110e+00 2.4452295267374877e+00 3.3457605861188817e+00 0 0 0
2060 129 6 -2.7500000000000002e-01 2.9069526662165139e+00 1.3640356470400437e+00 8.6730408237935048e+00 0 0 0
3326 218 8 1.0000000000000001e-01 2.5286099376798132e-01 3.0965816348396635e-01 8.8018549450068111e+00 1 1 0
3324 218 7 -5.0000000000000003e-02 -6.2285110434200375e-01 -1.2047548656103493e-01 9.2839724802545174e+00 1 1 0
3315 217 8 1.0000000000000001e-01 1.1057039933162947e+00 5.8471682119052171e-01 1.0682901068668151e+01 1 1 0
3316 217 8 1.0000000000000001e-01 1.7015634353150819e+00 -8.4087799608448621e-01 9.7819896490652560e+00 1 1 0
3314 217 7 -5.0000000000000003e-02 1.0688338593342690e+00 -5.2083375925825381e-01 1.0660715594439136e+01 1 1 0
3317 217 7 -5.0000000000000003e-02 1.5274244607357435e+00 -1.0699329495778780e+00 1.1979983517161401e+01 1 1 0
3323 218 8 1.0000000000000001e-01 -1.0395445569212627e+00 1.9022036726441947e+00 1.0177431046221582e+01 1 1 0
3318 217 8 1.0000000000000001e-01 2.5693003971942865e+00 -8.8927737514481275e-01 1.2102170665184529e+01 1 1 0
3327 218 11 -2.9999999999999999e-01 -1.7010800228939280e-01 -9.9952887610968288e-01 1.0401152952970058e+01 1 1 0
3362 223 11 -2.9999999999999999e-01 5.6773549959765535e-01 3.1651744396886614e+00 1.1380797129775795e+01 1 1 0
3329 219 8 1.0000000000000001e-01 -7.8305257213012969e-01 3.1576266995844944e+00 8.5311712057086240e+00 1 1 0
3319 217 8 1.0000000000000001e-01 1.0262850757702140e+00 -5.3691711036709178e-01 1.2870600577886318e+01 1 1 0
3481 240 11 -2.9999999999999999e-01 2.1155212744332266e+00 1.3451647728406555e+00 1.5179470024490167e+01 1 1 0
3475 240 7 -5.0000000000000003e-02 1.0966223643965336e+00 -8.1210110069238206e-01 1.5824666566570253e+01 1 1 0
3351 222 8 1.0000000000000001e-01 1.1641192687035273e+00 2.4338792652956944e+00 1.3140404585685719e+01 1 1 0
3480 240 8 1.0000000000000001e-01 3.8187947386920312e-01 6.6821101750655842e-01 1.4486417171037710e+01 1 1 0
3478 240 7 -5.0000000000000003e-02 9.2449316333998099e-01 6.2008412061987406e-01 1.5415888072986633e+01 1 1 0
3479 240 8 1.0000000000000001e-01 2.3408888228127972e-01 1.1122468217872090e+00 1.6171293117769011e+01 1 1 0
3469 239 8 1.0000000000000001e-01 2.9553578194421126e+00 -4.2482157014892108e-01 1.4311998808924889e+01 1 1 0
3352 222 7 -5.0000000000000003e-02 -9.2222639932504891e-01 2.3813933462322283e+00 1.3002144166193702e+01 1 1 0
3472 239 8 1.0000000000000001e-01 2.9474283931158087e+00 1.7673010692340652e+00 1.2721477015671018e+01 1 1 0
3349 222 7 -5.0000000000000003e-02 4.4364377677616018e-01 3.0055091692590974e+00 1.2776983885386780e+01 1 1 0
3468 239 7 -5.0000000000000003e-02 3.1693452855092756e+00 6.2906331300045393e-01 1.4524651439746872e+01 1 1 0
3476 240 8 1.0000000000000001e-01 1.7240626267896370e-01 -1.0369221672149951e+00 1.6245416489082761e+01 1 1 0
3353 222 8 1.0000000000000001e-01 -8.5760418308493069e-01 1.3502067189753579e+00 1.2555584741840633e+01 1 1 0
3354 222 8 1.0000000000000001e-01 -1.0786475526774388e+00 2.2116762887149726e+00 1.4091246631730096e+01 1 1 0
3488 241 11 -2.9999999999999999e-01 2.0586097104328163e+00 -8.3947849392310459e-01 1.6850413928021201e+01 1 1 0
3495 242 11 -2.9999999999999999e-01 1.1535328762081383e+00 6.9907039078594968e-01 1.8524592930110174e+01 1 1 0
3483 241 8 1.0000000000000001e-01 -3.1783904286580289e-01 -7.0742705712940857e-01 1.8577289192275764e+01 1 1 0
3490 242 8 1.0000000000000001e-01 3.0494779908215062e+00 2.4556145794432598e+00 2.0516262837250782e+01 1 1 0
3489 242 7 -5.0000000000000003e-02 2.1938223712622453e+00 1.8038234908931490e+00 2.0415941198932209e+01 1 1 0
3484 241 8 1.0000000000000001e-01 9.2358157072802771e-01 -7.7804334801781005e-01 1.9895721109001407e+01 1 1 0
3492 242 7 -5.0000000000000003e-02 2.3580450435450242e+00 9.9326394341021729e-01 1.9154875769774939e+01 1 1 0
3494 242 8 1.0000000000000001e-01 2.8255915525886448e+00 7.0196414146253203e-02 1.9536071425581689e+01 1 1 0
3491 242 8 1.0000000000000001e-01 1.3647708343837954e+00 2.4749725784854366e+00 2.0290481727703661e+01 1 1 0
3482 241 7 -5.0000000000000003e-02 7.5616073532489958e-01 -6.3140957014668397e-01 1.8835068999804779e+01 1 1 0
3493 242 8 1.0000000000000001e-01 3.0212085911104674e+00 1.3423278729126502e+00 1.8433279094713619e+01 1 1 0
3509 244 11 -2.9999999999999999e-01 1.2313933064586469e+00 2.7639469508680672e+00 2.3679811664512698e+01 1 1 0
3501 243 8 1.0000000000000001e-01 2.6086531223946086e+00 8.1028991455471122e-01 2.3546555078855860e+01 1 1 0
3496 243 7 -5.0000000000000003e-02 2.4736491707882009e+00 2.8226117249970164e+00 2.3107128225678277e+01 1 1 0
951 60 4 -3.3860000000000001e-01 -2.3295252157779789e-01 1.1148635875847512e+00 2.5417228710495699e+01 0 0 0
960 60 6 -2.7500000000000002e-01 1.9665274742088694e+00 6.1211349641166946e-01 2.5785205323602185e+01 0 0 0
3499 243 7 -5.0000000000000003e-02 2.7841425938548521e+00 1.3967263727148618e+00 2.2652603922815985e+01 1 1 0
1568 98 6 -2.7500000000000002e-01 1.0100985130672033e+00 -1.2492233650017055e+00 2.2780022113400953e+01 0 0 0
721 46 1 0.0000000000000000e+00 -1.1569232229158630e+00 3.6856620608615998e-01 2.1479025268879649e+01 0 0 0
3502 243 11 -2.9999999999999999e-01 2.0212250134536567e+00 9.8410437636126646e-01 2.1564963874808068e+01 1 1 0
3497 243 8 1.0000000000000001e-01 3.2055215972491955e+00 2.9685039637331032e+00 2.3880296736518151e+01 1 1 0
3507 244 8 1.0000000000000001e-01 2.3553187925028904e-01 2.9633333133779831e+00 2.1953665037702216e+01 1 1 0
3503 244 7 -5.0000000000000003e-02 -1.1486640387071436e+00 3.2048331354902722e+00 2.3549805352945395e+01 1 1 0
1567 98 6 -2.7500000000000002e-01 1.5036586440084229e-01 -1.3247743081685925e+00 2.4880272574634905e+01 0 0 0
1279 80 6 -2.7500000000000002e-01 2.7303787271175517e-01 -7.1288760144765939e-01 2.8897517996628054e+01 0 0 0
950 60 4 -3.3860000000000001e-01 -4.9680433303948002e-01 1.7515331425897744e+00 2.8197298418949622e+01 0 0 0
957 60 5 7.7500000000000002e-01 1.9639920597353355e+00 1.5435576067814469e+00 2.6789635733793261e+01 0 0 0
948 60 3 9.0269999999999995e-01 3.8195475309862131e-01 2.1953283658865193e+00 2.6724248584867908e+01 0 0 0
959 60 6 -2.7500000000000002e-01 2.1530948095752853e+00 9.4752850381929821e-01 2.8010182606512153e+01 0 0 0
958 60 6 -2.7500000000000002e-01 2.7632002416957282e+00 2.5566529189223695e+00 2.6471716712639793e+01 0 0 0
1266 80 2 -3.5099999999999998e-01 -4.7630029881561575e-01 -5.3084629018624774e-01 3.2691082025592316e+01 0 0 0
1268 80 3 9.0269999999999995e-01 5.7363460474670658e-01 -2.6762836202248957e-01 3.1393910928927010e+01 0 0 0
1270 80 4 -3.3860000000000001e-01 3.0092253934015922e-01 1.3798103752065574e+00 3.0786063730392549e+01 0 0 0
1304 82 4 -3.3860000000000001e-01 2.1906466035579899e+00 1.4441711557923245e+00 3.4005902897270957e+01 0 0 -1
1271 80 4 -3.3860000000000001e-01 2.2155247099550586e+00 -4.4082980913611469e-01 3.2059176462394625e+01 0 0 0
1265 80 1 0.0000000000000000e+00 -4.0658851425945564e-01 1.9018843845791382e+00 3.4688221569895468e+01 0 0 0
865 55 1 0.0000000000000000e+00 3.2091406844283985e+00 2.3974669664737012e+00 3.1368546353710695e+01 0 0 0
399 25 6 -2.7500000000000002e-01 2.3765333181480791e-01 4.6266045543809486e+00 1.6152920780449724e+00 0 0 0
2185 137 5 7.7500000000000002e-01 2.1825698435447052e+00 6.7399619223925118e+00 -7.3898411938694564e-01 0 0 0
2188 137 6 -2.7500000000000002e-01 9.7008931284409838e-01 6.5278784117907884e+00 -2.9593922301227277e-01 0 0 0
2192 137 6 -2.7500000000000002e-01 2.6560231346441081e+00 4.8325700903116466e+00 1.6289152989414504e+00 0 0 0
391 25 4 -3.3860000000000001e-01 -5.5120259387218051e-01 7.5591160519080498e+00 1.6536172673499570e+00 0 0 0
2181 137 4 -3.3860000000000001e-01 1.4499531636372736e+00 4.0153650123966695e+00 -1.1828746846275833e+00 0 0 0
2186 137 6 -2.7500000000000002e-01 2.9276903273382198e+00 7.2333435735486944e+00 2.7122524088537286e-01 0 0 0
397 25 5 7.7500000000000002e-01 -1.0881211617830824e+00 4.6235508935454863e+00 1.5126431439048882e+00 0 0 0
1430 90 4 -3.3860000000000001e-01 1.7258876877825364e+00 7.7221194764711631e+00 2.6755297677437797e+00 0 0 0
392 25 4 -3.3860000000000001e-01 -2.6184317994628487e-01 6.0196847078268627e+00 4.1412805312108771e+00 0 0 0
303 19 6 -2.7500000000000002e-01 2.3750078858073960e+00 5.6806932697716235e+00 4.5262262382938605e+00 0 0 0
295 19 4 -3.3860000000000001e-01 2.4342190802276262e-01 3.8032066096378916e+00 5.3417145193713695e+00 0 0 0
292 19 3 9.0269999999999995e-01 1.1627518291792485e+00 4.7871028982089046e+00 6.4600080138979088e+00 0 0 0
290 19 2 -3.5099999999999998e-01 2.0741924289774288e-01 5.9607961329324333e+00 7.2912777841530536e+00 0 0 0
301 19 5 7.7500000000000002e-01 2.7059956760212929e+00 5.2083107814986436e+00 5.7821948526950111e+00 0 0 0
294 19 4 -3.3860000000000001e-01 1.6177938827450746e+00 3.6133214722524762e+00 7.6738303559310852e+00 0 0 0
3340 220 8 1.0000000000000001e-01 -1.3168759142650452e+00 4.6373684999066187e+00 1.0216300286082522e+01 1 1 0
3358 223 8 1.0000000000000001e-01 7.0841014598311258e-01 5.6127932500306583e+00 1.0053322713060631e+01 1 1 0
3369 224 11 -2.9999999999999999e-01 7.4126579285151217e-01 6.0407025027979966e+00 1.1991442746244532e+01 1 1 0
3356 223 7 -5.0000000000000003e-02 1.3440262980382378e+00 5.4273578401328031e+00 1.0884417031638842e+01 1 1 0
3357 223 8 1.0000000000000001e-01 2.3258519301005336e+00 5.8476193006323562e+00 1.0638093470052182e+01 1 1 0
3368 224 8 1.0000000000000001e-01 -5.2614137425420893e-01 7.0692847299845303e+00 1.0725427843014730e+01 1 1 0
293 19 4 -3.3860000000000001e-01 2.4292489886900817e+00 7.0381143335955558e+00 8.7562257533974535e+00 0 0 0
3359 223 7 -5.0000000000000003e-02 1.7132330133803149e+00 3.9802935942566142e+00 1.1152275034136522e+01 1 1 0
3366 224 7 -5.0000000000000003e-02 -7.2930138013933790e-02 7.1949905970844652e+00 1.1706437252665516e+01 1 1 0
3361 223 8 1.0000000000000001e-01 2.4491587285735346e+00 3.8580747864165956e+00 1.2007220760104893e+01 1 1 0
3360 223 8 1.0000000000000001e-01 2.3160664043906940e+00 3.6282356107146718e+00 1.0316022415301093e+01 1 1 0
291 19 3 9.0269999999999995e-01 9.1963306540694323e-01 7.3407921338952429e+00 7.8864997920449778e+00 0 0 0
2860 179 6 -2.7500000000000002e-01 -4.3142961824099035e-01 5.9526048997912575e+00 1.4613768086212669e+01 0 0 0
2858 179 6 -2.7500000000000002e-01 -5.6591030829914291e-02 4.1152959479995976e+00 1.5726640381668078e+01 0 0 0
2856 179 4 -3.3860000000000001e-01 2.3172933753630907e+00 6.8804876944585480e+00 1.4100720747080079e+01 0 0 0
2857 179 5 7.7500000000000002e-01 2.8200894063036996e-01 5.3889185253409009e+00 1.5555487891109554e+01 0 0 0
2853 179 4 -3.3860000000000001e-01 2.7717707089955130e+00 4.2783740999318880e+00 1.4647227885249924e+01 0 0 0
2851 179 3 9.0269999999999995e-01 1.9746757010011333e+00 5.6405019059146104e+00 1.5322860078465522e+01 0 0 0
2859 179 6 -2.7500000000000002e-01 -3.4999071430905347e-03 5.9428625772245107e+00 1.6732695651828323e+01 0 0 0
3350 222 8 1.0000000000000001e-01 5.8919613435025642e-01 3.9721190523760561e+00 1.3263531909418942e+01 1 1 0
3367 224 8 1.0000000000000001e-01 -8.3144082397679830e-01 7.3612792008686734e+00 1.2464102012741078e+01 1 1 0
2852 179 3 9.0269999999999995e-01 2.2953336043449082e+00 4.7558325532972674e+00 1.8149192825093241e+01 0 0 0
2863 179 6 -2.7500000000000002e-01 1.4592687405863336e+00 4.8585607212127186e+00 2.0576256160637442e+01 0 0 0
2861 179 5 7.7500000000000002e-01 1.0337114945873607e+00 5.0264179202305748e+00 1.9305981461554794e+01 0 0 0
2862 179 6 -2.7500000000000002e-01 5.7978254440941490e-01 6.2821508522827934e+00 1.9236005005845460e+01 0 0 0
2954 185 6 -2.7500000000000002e-01 2.9016681120447063e+00 6.9860278974946572e+00 2.0085647852779140e+01 0 0 0
2864 179 6 -2.7500000000000002e-01 6.9797257319069800e-02 4.1154663583033289e+00 1.9065726955300502e+01 0 0 0
3521 246 8 1.0000000000000001e-01 -1.0428044719656873e+00 5.4569075895105881e+00 2.0860022627427838e+01 1 1 0
2850 179 2 -3.5099999999999998e-01 2.5398579945608555e+00 5.9646048157129501e+00 1.6918963628581984e+01 0 0 0
2854 179 4 -3.3860000000000001e-01 1.7970697727963718e+00 3.2686905917678271e+00 1.7392038019686801e+01 0 0 0
529 34 1 0.0000000000000000e+00 2.5387503648515666e+00 5.8773467464145677e+00 2.4238473183960060e+01 0 0 0
3508 244 8 1.0000000000000001e-01 4.6879432890576217e-01 4.4390029048270323e+00 2.2910695437134184e+01 1 1 0
3506 244 7 -5.0000000000000003e-02 2.2622354890826282e-01 3.4320459375705710e+00 2.2964530582396851e+01 1 1 0
1290 81 6 -2.7500000000000002e-01 -3.8773764568182195e-01 6.0802162724775624e+00 2.4656510718978900e+01 0 0 0
3498 243 8 1.0000000000000001e-01 2.4467130941077371e+00 3.5917043184846924e+00 2.2321457626456016e+01 1 1 0
1285 81 4 -3.3860000000000001e-01 3.4633824099342086e-01 7.1007416047337752e+00 2.2169525905432554e+01 0 0 0
1289 81 5 7.7500000000000002e-01 -1.0988633160887664e+00 7.1776983275272483e+00 2.4439310132814580e+01 0 0 0
3505 244 8 1.0000000000000001e-01 -1.2095772567023424e+00 3.4171347503102947e+00 2.4644354640842248e+01 1 1 0
954 60 6 -2.7500000000000002e-01 2.7127714476699651e+00 4.9800792388954687e+00 2.9643046016031441e+01 0 0 0
955 60 6 -2.7500000000000002e-01 6.2699482271092866e-01 5.6077332843789041e+00 2.9668805669240736e+01 0 0 0
953 60 5 7.7500000000000002e-01 1.5222280595828235e+00 4.7642886026477376e+00 2.9131371730125647e+01 0 0 0
947 60 3 9.0269999999999995e-01 1.4496099324440050e+00 5.0293572159279396e+00 2.7408163578835801e+01 0 0 0
956 60 6 -2.7500000000000002e-01 1.1309118912224123e+00 3.4714848624378924e+00 2.9438510506848356e+01 0 0 0
949 60 4 -3.3860000000000001e-01 6.3063266783071859e-01 6.5756595725631080e+00 2.7133474686268897e+01 0 0 0
946 60 2 -3.5099999999999998e-01 5.1367427451397807e-01 3.9201422325186961e+00 2.6347151597752113e+01 0 0 0
952 60 4 -3.3860000000000001e-01 3.1256215222820782e+00 5.1482418218790125e+00 2.6840699734075901e+01 0 0 0
347 22 6 -2.7500000000000002e-01 1.7328780126522245e+00 7.0912175351072610e+00 3.1700415158065294e+01 0 0 0
2184 137 4 -3.3860000000000001e-01 2.9224451292698563e+00 5.2192054037804452e+00 3.3238624697735567e+01 0 0 -1
349 22 5 7.7500000000000002e-01 -9.4340969807976782e-01 7.2150607364939905e+00 3.2779152030754084e+01 0 0 0
945 60 1 0.0000000000000000e+00 6.6576685144556080e-01 3.7991843432356234e+00 3.2361458914624869e+01 0 0 0
350 22 6 -2.7500000000000002e-01 -1.8317743319001756e-02 6.7837927071118695e+00 3.3631948081256958e+01 0 0 0
352 22 6 -2.7500000000000002e-01 -1.0360240269548333e+00 6.2994380909325116e+00 3.1737834886587496e+01 0 0 0
2187 137 6 -2.7500000000000002e-01 2.2008989516198740e+00 7.6720716420654860e+00 3.4678505634702901e+01 0 0 -1
2179 137 3 9.0269999999999995e-01 2.7639755101007530e+00 5.1605549177207832e+00 3.4984862002782471e+01 0 0 -1
3080 193 4 -3.3860000000000001e-01 -1.3132476282697052e+00 4.7596979922945906e+00 3.4172123582929800e+01 1 0 0
1435 90 6 -2.7500000000000002e-01 1.3345183129129152e+00 1.0022050749753825e+01 8.3984983273295444e-01 0 0 0
1433 90 5 7.7500000000000002e-01 2.2303635483151889e+00 1.0710960417787602e+01 1.0229589486107699e-01 0 0 0
1440 90 6 -2.7500000000000002e-01 2.4025166777419038e+00 1.1473795514007127e+01 2.8570250468290066e+00 0 0 0
1436 90 6 -2.7500000000000002e-01 2.0631941974436332e+00 1.2044108825934471e+01 2.6621627971956091e-01 0 0 0
1425 90 1 0.0000000000000000e+00 -7.1880588724591432e-01 8.9380173968843675e+00 -8.0824015928616999e-01 0 0 0
1428 90 3 9.0269999999999995e-01 2.8026138082215528e+00 9.0243698586825527e+00 3.1456758022077000e+00 0 0 0
1438 90 6 -2.7500000000000002e-01 4.8590111696729310e-01 1.0396081321367205e+01 3.2158771795840089e+00 0 0 0
1434 90 6 -2.7500000000000002e-01 2.1677890035745913e+00 1.0358778191803443e+01 -1.1913548822749906e+00 0 0 0
298 19 6 -2.7500000000000002e-01 6.3776809994184380e-01 9.6895307795212471e+00 6.9183332114101601e+00 0 0 0
297 19 5 7.7500000000000002e-01 1.3674982580832520e+00 8.5594253443379724e+00 6.7080328908190570e+00 0 0 0
1439 90 6 -2.7500000000000002e-01 1.9237350741516497e+00 1.0762458520414238e+01 4.8800745944317363e+00 0 0 0
299 19 6 -2.7500000000000002e-01 2.6890114587977401e+00 8.7916195273333901e+00 6.7618593769668278e+00 0 0 0
300 19 6 -2.7500000000000002e-01 1.1107878280003871e+00 8.0705097569886437e+00 5.4858764923332526e+00 0 0 0
1437 90 5 7.7500000000000002e-01 1.7920886882547233e+00 1.0461430059973072e+01 3.5606280000506891e+00 0 0 0
3376 225 11 -2.9999999999999999e-01 1.7311158030740366e+00 8.4154311504909352e+00 1.0852644131696486e+01 1 1 0
3383 226 11 -2.9999999999999999e-01 1.9750592217188510e+00 1.1103169968514987e+01 9.1814525764518322e+00 1 1 0
3363 224 7 -5.0000000000000003e-02 6.9062585418885769e-01 8.4631077455306301e+00 1.1719318834544262e+01 1 1 0
296 19 4 -3.3860000000000001e-01 -3.7442003221826564e-01 8.1231166578396241e+00 8.7990105738674593e+00 0 0 0
1352 85 4 -3.3860000000000001e-01 -3.3057324134901300e-01 1.1224984041664664e+01 1.0424996093690659e+01 0 0 0
3375 225 8 1.0000000000000001e-01 1.8856254078485841e+00 1.0300258963060086e+01 1.1704101037553428e+01 1 1 0
3373 225 7 -5.0000000000000003e-02 2.4371745725067404e+00 9.5924368271928664e+00 1.1111048964988431e+01 1 1 0
3370 225 7 -5.0000000000000003e-02 2.9257611520126598e+00 1.0139959046702801e+01 9.7988885726245041e+00 1 1 0
3364 224 8 1.0000000000000001e-01 3.0365661592737271e-02 9.3291871724635911e+00 1.1525084925063030e+01 1 1 0
1347 85 3 9.0269999999999995e-01 -1.2645135847143085e+00 1.1733521787628977e+01 8.9989247194655153e+00 0 0 0
3372 225 8 1.0000000000000001e-01 3.1055913527244461e+00 9.3090638345522407e+00 9.0939393159444695e+00 1 1 0
2883 181 3 9.0269999999999995e-01 2.6186088973782446e+00 1.0578417817386601e+01 1.6472478683559906e+01 0 0 0
2889 181 5 7.7500000000000002e-01 2.0306341696438546e+00 9.7859129100123869e+00 1.5075365298367180e+01 0 0 0
2892 181 6 -2.7500000000000002e-01 1.0605925975005819e+00 1.0625532194588393e+01 1.4657054361704468e+01 0 0 0
3365 224 8 1.0000000000000001e-01 1.0216336182007428e+00 8.6819153078286870e+00 1.2733125070257802e+01 1 1 0
2891 181 6 -2.7500000000000002e-01 1.4930278737452221e+00 8.6525310741892980e+00 1.5538767963524544e+01 0 0 0
2890 181 6 -2.7500000000000002e-01 2.9394863989726874e+00 9.5874973687358835e+00 1.4020875980694145e+01 0 0 0
974 61 6 -2.7500000000000002e-01 -1.1380929658572803e+00 9.6510041346030473e+00 1.5762311443670850e+01 1 0 0
2839 178 4 -3.3860000000000001e-01 -1.1009892960368270e+00 1.2264768542154552e+01 1.5841317715758796e+01 0 0 0
2893 181 5 7.7500000000000002e-01 9.8499753441376525e-01 1.0131867495351351e+01 1.9659454585513565e+01 0 0 0
2896 181 6 -2.7500000000000002e-01 1.6270061964816565e-01 1.0798434223273393e+01 2.0503761100504921e+01 0 0 0
2887 181 4 -3.3860000000000001e-01 -1.9580433551958508e-02 8.4883827131669403e+00 1.7724326193632159e+01 0 0 0
2895 181 6 -2.7500000000000002e-01 2.0821088515266917e+00 1.0847643031456728e+01 1.9323213772414640e+01 0 0 0
2884 181 3 9.0269999999999995e-01 1.9689950651914631e-01 1.0168581790401335e+01 1.8153392842129922e+01 0 0 0
2894 181 6 -2.7500000000000002e-01 1.1963735892593255e+00 8.8952268427841865e+00 2.0211473570795381e+01 0 0 0
2882 181 2 -3.5099999999999998e-01 1.1936797059171718e+00 1.1193557191925946e+01 1.7187457632107641e+01 0 0 0
1284 81 3 9.0269999999999995e-01 2.3495578471836187e+00 1.0365741531625011e+01 2.3669794489275326e+01 0 0 0
1282 81 2 -3.5099999999999998e-01 1.2389473463809135e+00 9.0572745705171087e+00 2.4126396077344129e+01 0 0 0
1283 81 3 9.0269999999999995e-01 -1.2588029580949534e-01 8.2893149555115624e+00 2.3403247175565699e+01 0 0 0
1287 81 4 -3.3860000000000001e-01 2.2450420008625529e+00 1.0729420518075955e+01 2.1942607511142182e+01 0 0 0
1295 81 6 -2.7500000000000002e-01 1.0633132615230276e+00 1.1570066742666224e+01 2.5297617248257914e+01 0 0 0
1288 81 4 -3.3860000000000001e-01 -1.1838823708843216e+00 9.4829088380701041e+00 2.2690825000178332e+01 0 0 0
1293 81 5 7.7500000000000002e-01 1.9426930203534050e+00 1.1885721663811459e+01 2.4388080693388357e+01 0 0 0
587 37 6 -2.7500000000000002e-01 -1.1106769948044275e+00 1.2098610755258681e+01 2.2965941025387512e+01 1 0 0
2956 185 6 -2.7500000000000002e-01 2.8715285855109181e+00 7.9165386248576617e+00 2.2091041330299408e+01 0 0 0
339 22 3 9.0269999999999995e-01 1.9058990050579365e+00 8.8706919993462883e+00 3.0028216501353185e+01 0 0 0
577 37 1 0.0000000000000000e+00 1.3889228143871987e-01 9.5592526146061374e+00 2.7317042458644419e+01 1 0 0
341 22 4 -3.3860000000000001e-01 2.4636859762800123e+00 1.0588249351442272e+01 2.9956063883438354e+01 0 0 0
1968 123 6 -2.7500000000000002e-01 2.9320819483880078e-01 1.1883385738100001e+01 2.8952714539582185e+01 0 0 0
338 22 2 -3.5099999999999998e-01 2.1492229019712988e-01 8.8680873644896003e+00 3.0364188723954026e+01 0 0 0
344 22 4 -3.3860000000000001e-01 2.3339892405080098e+00 7.9011751652328641e+00 2.8591286313573974e+01 0 0 0
1965 123 5 7.7500000000000002e-01 -7.3144509809817992e-01 1.2138995178446260e+01 2.9786728741659172e+01 0 0 0
340 22 3 9.0269999999999995e-01 -3.3656065847256483e-01 8.6755590759010559e+00 3.2023613850869239e+01 0 0 0
1681 106 1 0.0000000000000000e+00 -5.4551176439150717e-01 1.1954981971364823e+01 3.3825663225928643e+01 1 0 -1
342 22 4 -3.3860000000000001e-01 7.9232480920145276e-01 9.3591649388826479e+00 3.3192496253815072e+01 0 0 0
2213 139 4 -3.3860000000000001e-01 1.6640509870548095e+00 1.1549730241813196e+01 3.2194656284107367e+01 0 0 0
346 22 6 -2.7500000000000002e-01 3.1183773904279630e+00 8.7487495011331156e+00 3.2294838955252615e+01 0 0 0
345 22 5 7.7500000000000002e-01 2.6918461016854960e+00 7.9838030509983344e+00 3.1282654207760277e+01 0 0 0
712 45 4 -3.3860000000000001e-01 2.2001362498127115e+00 1.5942613345864189e+01 1.0260765053781924e-01 0 0 0
706 45 2 -3.5099999999999998e-01 1.8394535843298945e+00 1.4545978116525744e+01 2.7241721584924967e+00 0 0 0
707 45 3 9.0269999999999995e-01 2.8622475380421402e+00 1.5654865781441277e+01 1.7298854899048672e+00 0 0 0
2374 149 4 -3.3860000000000001e-01 4.1459861039017248e-01 1.4076062002198366e+01 -9.9133064425854411e-01 1 0 0
2375 149 4 -3.3860000000000001e-01 -3.0100793944376170e-01 1.5309622151633008e+01 1.3709732962547956e+00 1 0 0
2372 149 3 9.0269999999999995e-01 -9.8643148918051660e-01 1.4212075704155810e+01 1.2379509256339602e-01 1 0 0
2383 149 6 -2.7500000000000002e-01 -2.7017307186891781e-01 1.2455770153731390e+01 1.7971067185767138e+00 1 0 0
2381 149 5 7.7500000000000002e-01 -1.3149435921176460e+00 1.2664169775647727e+01 9.4999609832037057e-01 1 0 0
719 45 6 -2.7500000000000002e-01 -7.5449911379218559e-01 1.4186009647362109e+01 3.6668922926367920e+00 0 0 0
708 45 3 9.0269999999999995e-01 1.6314033513298791e+00 1.4684607258407931e+01 4.4093490362820900e+00 0 0 0
717 45 5 7.7500000000000002e-01 4.8080720099210106e-02 1.4045550922710277e+01 4.7438673839702137e+00 0 0 0
711 45 4 -3.3860000000000001e-01 1.9043390752228264e+00 1.6261168440959928e+01 5.0383604167003124e+00 0 0 0
718 45 6 -2.7500000000000002e-01 -4.4189880691216366e-01 1.4690258864215140e+01 5.8002347248186696e+00 0 0 0
720 45 6 -2.7500000000000002e-01 1.6046186230820600e-01 1.2707118781552397e+01 4.9955244680624729e+00 0 0 0
710 45 4 -3.3860000000000001e-01 2.7671442277255061e+00 1.3641666191960130e+01 5.2166857019178510e+00 0 0 0
3397 228 11 -2.9999999999999999e-01 1.4692801005813283e+00 1.5198070692880847e+01 7.6895134760165726e+00 1 1 0
3377 226 7 -5.0000000000000003e-02 2.0673209777766051e+00 1.3342943629638716e+01 1.0213768901863874e+01 1 1 0
3387 227 7 -5.0000000000000003e-02 5.2598827720985364e-01 1.5150995831922442e+01 9.9873658622216599e+00 1 1 0
3388 227 8 1.0000000000000001e-01 1.2821890505034077e+00 1.5673101800585679e+01 1.0541419528650408e+01 1 1 0
3395 228 8 1.0000000000000001e-01 2.7063525505354273e+00 1.6283571061728296e+01 9.0661627959933373e+00 1 1 0
3390 227 11 -2.9999999999999999e-01 7.2979044572839746e-01 1.3711883124008743e+01 1.0017068346540048e+01 1 1 0
3389 227 8 1.0000000000000001e-01 -4.3104833702864409e-01 1.5457383286642965e+01 1.0471318075498639e+01 1 1 0
3379 226 8 1.0000000000000001e-01 2.6967891583950312e+00 1.4275762157177855e+01 1.0166207651373430e+01 1 1 0
3384 227 7 -5.0000000000000003e-02 4.1763409807408491e-01 1.5627074516958332e+01 8.5515752878045337e+00 1 1 0
3378 226 8 1.0000000000000001e-01 2.2153992507986975e+00 1.2751453554546462e+01 1.1169038718188188e+01 1 1 0
3385 227 8 1.0000000000000001e-01 -5.6201326238856242e-01 1.5358692116640228e+01 8.0918954744062894e+00 1 1 0
3386 227 8 1.0000000000000001e-01 3.6241381117793919e-01 1.6732661859465221e+01 8.5065132320093415e+00 1 1 0
3381 226 8 1.0000000000000001e-01 2.2690455499761875e+00 1.2864735882641131e+01 8.1241336718045094e+00 1 1 0
3380 226 7 -5.0000000000000003e-02 2.5071071266971718e+00 1.2420089201461005e+01 9.1001825806684131e+00 1 1 0
3394 228 7 -5.0000000000000003e-02 2.5341784059359167e+00 1.6061675900138329e+01 7.9716418520965284e+00 1 1 0
1349 85 4 -3.3860000000000001e-01 -3.1216709164231993e-01 1.2741484693753037e+01 7.9350265281255536e+00 0 0 0
2841 178 5 7.7500000000000002e-01 1.6160095740177263e+00 1.4979912175371044e+01 1.3412246376859862e+01 0 0 0
2844 178 6 -2.7500000000000002e-01 1.9050591259028093e+00 1.5647387697126387e+01 1.4518921398223625e+01 0 0 0
2835 178 3 9.0269999999999995e-01 1.2269697651854641e+00 1.3470604286945726e+01 1.4071110176275972e+01 0 0 0
2843 178 6 -2.7500000000000002e-01 5.3851006567717563e-01 1.5574472965073703e+01 1.2891898540998412e+01 0 0 0
2842 178 6 -2.7500000000000002e-01 2.7019952733017565e+00 1.4824146865369443e+01 1.2589194499677321e+01 0 0 0
2840 178 4 -3.3860000000000001e-01 1.1174327356482168e+00 1.3889951065066629e+01 1.5787841468018280e+01 0 0 0
2834 178 2 -3.5099999999999998e-01 -2.7847716853576794e-02 1.2589465858816894e+01 1.3203245993425003e+01 0 0 0
2837 178 4 -3.3860000000000001e-01 2.7346192548035688e+00 1.2509105635741609e+01 1.3835130671632989e+01 0 0 0
383 24 6 -2.7500000000000002e-01 -9.8217031715548742e-01 1.3389309818764662e+01 1.8008449700795833e+01 0 0 0
384 24 6 -2.7500000000000002e-01 4.1891772928974941e-01 1.5120290016257247e+01 1.8268589472262803e+01 0 0 0
381 24 5 7.7500000000000002e-01 -1.0780216386041333e-01 1.4004200867166860e+01 1.8826470101930973e+01 0 0 0
382 24 6 -2.7500000000000002e-01 7.8538098142898882e-01 1.3111083729781658e+01 1.9257847687589546e+01 0 0 0
372 24 3 9.0269999999999995e-01 -8.6945398253226147e-01 1.4495881459026062e+01 2.0271873696127511e+01 0 0 0
369 24 1 0.0000000000000000e+00 2.2587035525155188e+00 1.6406641591265558e+01 2.0275083470860320e+01 0 0 0
140 9 6 -2.7500000000000002e-01 2.8382167959549953e+00 1.3722719770659671e+01 1.8062519510040286e+01 0 0 0